<?xml version="1.0" encoding="ISO-8859-1"?>
<modeling>
 <generator>
  <i name="program" type="string">vasp </i>
  <i name="version" type="string">6.4.0  </i>
  <i name="subversion" type="string">14Feb23 (build Mar 27 2023 22:14:03) complex                          parallel </i>
  <i name="platform" type="string">LinuxIFC </i>
  <i name="date" type="string">2023 05 08 </i>
  <i name="time" type="string">09:42:48 </i>
 </generator>
 <incar>
  <i type="string" name="PREC">Accurate</i>
  <i type="string" name="ALGO">normal</i>
  <i type="int" name="ISPIN">     1</i>
  <i type="int" name="ICHARG">     2</i>
  <i type="int" name="NELM">   100</i>
  <i type="int" name="IBRION">    -1</i>
  <i name="EDIFF">      0.00001000</i>
  <i type="int" name="NSW">     0</i>
  <i type="int" name="ISIF">     2</i>
  <i name="ENCUT">    520.00000000</i>
  <i type="string" name="LREAL">Auto</i>
  <i type="int" name="ISMEAR">     0</i>
  <i name="SIGMA">      0.05000000</i>
  <i type="logical" name="LWAVE"> F  </i>
  <i type="logical" name="LCHARG"> F  </i>
  <i type="logical" name="LASPH"> T  </i>
  <i type="string" name="GGA">PE</i>
 </incar>
 <primitive_cell>
  <structure name="primitive_cell" >
   <crystal>
    <varray name="basis" >
     <v>      10.98011824       0.00000000       0.00000000 </v>
     <v>       0.00000000      10.98011824       0.00000000 </v>
     <v>       0.00000000       0.00000000      10.98011824 </v>
    </varray>
    <i name="volume">   1323.79595765 </i>
    <varray name="rec_basis" >
     <v>       0.09107370       0.00000000       0.00000000 </v>
     <v>       0.00000000       0.09107370       0.00000000 </v>
     <v>       0.00000000       0.00000000       0.09107370 </v>
    </varray>
   </crystal>
   <varray name="positions" >
    <v>       0.57536140       0.11353167       0.98555502 </v>
    <v>       0.76958352       0.39062748       0.64135283 </v>
    <v>       0.89813307       0.01463098       0.44615994 </v>
    <v>       0.36940689       0.61497263       0.90355325 </v>
    <v>       0.26662803       0.46167268       0.63134736 </v>
    <v>       0.20426305       0.40582142       0.32695913 </v>
    <v>       0.57435904       0.94612378       0.52455117 </v>
    <v>       0.32272565       0.97962122       0.55833539 </v>
    <v>       0.14223072       0.87010101       0.35137836 </v>
    <v>       0.58239318       0.69463806       0.29778203 </v>
    <v>       0.37004208       0.91341059       0.16486725 </v>
    <v>       0.76620565       0.73863677       0.52317183 </v>
    <v>       0.42413885       0.47657064       0.17199449 </v>
    <v>       0.65196037       0.27130853       0.20592475 </v>
    <v>       0.84835721       0.78253726       0.17662774 </v>
    <v>       0.04561610       0.86467061       0.66992299 </v>
    <v>       0.11846664       0.12916915       0.30656556 </v>
    <v>       0.65526068       0.60002721       0.77966637 </v>
    <v>       0.53812963       0.39966546       0.43787143 </v>
    <v>       0.97826103       0.52557748       0.13380354 </v>
    <v>       0.73677799       0.93759049       0.98625081 </v>
    <v>       0.74102907       0.48608644       0.38133111 </v>
    <v>       0.74178248       0.18208973       0.48676108 </v>
    <v>       0.37023278       0.23917086       0.09627968 </v>
    <v>       0.35824537       0.11938200       0.87357762 </v>
    <v>       0.09715077       0.54609402       0.88057466 </v>
    <v>       0.16992668       0.04790922       0.79856601 </v>
    <v>       0.87454659       0.19955461       0.27479974 </v>
    <v>       0.00456370       0.50278286       0.70327726 </v>
    <v>       0.35704900       0.24116918       0.53949988 </v>
    <v>       0.86807560       0.43548036       0.86700496 </v>
    <v>       0.43572700       0.39394072       0.80328539 </v>
    <v>       0.22226619       0.37357112       0.03212451 </v>
    <v>       0.14268548       0.74660927       0.87863423 </v>
    <v>       0.50384115       0.61165318       0.53680303 </v>
    <v>       0.70500438       0.52257823       0.09750716 </v>
    <v>       0.03189891       0.29672570       0.14022607 </v>
    <v>       0.85055963       0.25960787       0.95017808 </v>
    <v>       0.94590428       0.98216036       0.88399282 </v>
    <v>       0.28901714       0.88564435       0.89583517 </v>
    <v>       0.67931557       0.99974837       0.25041367 </v>
    <v>       0.24674855       0.26610907       0.76423567 </v>
    <v>       0.29049360       0.67721621       0.41479246 </v>
    <v>       0.89519362       0.05487323       0.09005718 </v>
    <v>       0.32355245       0.71946986       0.64688378 </v>
    <v>       0.55727122       0.79695750       0.03820724 </v>
    <v>       0.60290642       0.36900532       0.94653477 </v>
    <v>       0.53377763       0.20242657       0.69510748 </v>
    <v>       0.82984048       0.09761655       0.71383024 </v>
    <v>       0.41905173       0.14265662       0.32313595 </v>
    <v>       0.21034045       0.68836805       0.14171236 </v>
    <v>       0.18703526       0.10204235       0.04895940 </v>
    <v>       0.90002867       0.67673062       0.89587404 </v>
    <v>       0.98569313       0.61934469       0.42954774 </v>
    <v>       0.07167227       0.18233137       0.59877353 </v>
    <v>       0.94547660       0.33582286       0.43942287 </v>
    <v>       0.49449131       0.90377852       0.78120433 </v>
    <v>       0.03521617       0.26861971       0.85531875 </v>
    <v>       0.74659251       0.86762830       0.78159874 </v>
    <v>       0.09132727       0.86203743       0.02851858 </v>
    <v>       0.52119111       0.02116647       0.26241804 </v>
    <v>       0.21028341       0.77223599       0.53572010 </v>
    <v>       0.48193305       0.29046660       0.02244538 </v>
    <v>       0.79847686       0.94608358       0.60841361 </v>
    <v>       0.41984756       0.28701464       0.28259805 </v>
    <v>       0.68192677       0.14859487       0.65160685 </v>
    <v>       0.99588352       0.08352885       0.74522639 </v>
    <v>       0.35428760       0.08353413       0.03479452 </v>
    <v>       0.00049811       0.32632771       0.28752510 </v>
    <v>       0.61220727       0.48893526       0.25227768 </v>
    <v>       0.74652698       0.08725003       0.11756958 </v>
    <v>       0.17549500       0.17569292       0.89730466 </v>
    <v>       0.74290482       0.12110880       0.33662526 </v>
    <v>       0.62347627       0.33852404       0.78594585 </v>
    <v>       0.85694912       0.27379457       0.78001360 </v>
    <v>       0.43125350       0.61892483       0.68794767 </v>
    <v>       0.01297487       0.41367326       0.96825402 </v>
    <v>       0.72543067       0.33136335       0.02655325 </v>
    <v>       0.17283639       0.97174001       0.12168026 </v>
    <v>       0.17983959       0.63713988       0.71890749 </v>
    <v>       0.76371352       0.34625920       0.39177912 </v>
    <v>       0.34499383       0.84382337       0.73965257 </v>
    <v>       0.53078317       0.51099277       0.97782792 </v>
    <v>       0.71321809       0.87614648       0.35864609 </v>
    <v>       0.48372514       0.92388304       0.93055900 </v>
    <v>       0.10267946       0.02526833       0.51075233 </v>
    <v>       0.64091246       0.55530190       0.53067304 </v>
    <v>       0.08988449       0.31891148       0.71089437 </v>
    <v>       0.93816722       0.03523014       0.25358760 </v>
    <v>       0.86209398       0.58787622       0.34692695 </v>
    <v>       0.76244375       0.02085227       0.84400788 </v>
    <v>       0.12047560       0.95373361       0.90729522 </v>
    <v>       0.15779355       0.26605895       0.49585489 </v>
    <v>       0.59998018       0.83641201       0.68763383 </v>
    <v>       0.46505984       0.06680737       0.75778184 </v>
    <v>       0.20626051       0.53618621       0.09284315 </v>
    <v>       0.25371970       0.76990154       0.00678294 </v>
    <v>       0.82954039       0.61077547       0.00996579 </v>
    <v>       0.48646033       0.18317862       0.49233097 </v>
    <v>       0.18928554       0.23024674       0.13985412 </v>
    <v>       0.31713799       0.04352556       0.36465093 </v>
    <v>       0.97011526       0.17528611       0.02028041 </v>
    <v>       0.13604197       0.62546211       0.36430218 </v>
    <v>       0.05243556       0.67832630       0.97432756 </v>
    <v>       0.97341019       0.77374502       0.47856712 </v>
    <v>       0.87159572       0.56587121       0.76751319 </v>
    <v>       0.91876841       0.22787191       0.54056533 </v>
    <v>       0.05319253       0.75526434       0.18168126 </v>
    <v>       0.92510656       0.90577177       0.03205677 </v>
    <v>       0.28111958       0.39541956       0.86277017 </v>
    <v>       0.29549117       0.74327497       0.25480552 </v>
    <v>       0.63145729       0.88681799       0.13421885 </v>
    <v>       0.36728813       0.51646271       0.42754347 </v>
    <v>       0.98317286       0.48199510       0.52173162 </v>
    <v>       0.88317258       0.78444745       0.77580488 </v>
    <v>       0.25001289       0.12119711       0.66380192 </v>
    <v>       0.67996622       0.77789734       0.91363281 </v>
    <v>       0.40523695       0.29825174       0.67106914 </v>
    <v>       0.43429554       0.76630324       0.45419375 </v>
    <v>       0.45967029       0.70795689       0.09989101 </v>
   </varray>
  </structure>
  <varray name="primitive_index" >
   <v type="int" >        1 </v>
   <v type="int" >        2 </v>
   <v type="int" >        3 </v>
   <v type="int" >        4 </v>
   <v type="int" >        5 </v>
   <v type="int" >        6 </v>
   <v type="int" >        7 </v>
   <v type="int" >        8 </v>
   <v type="int" >        9 </v>
   <v type="int" >       10 </v>
   <v type="int" >       11 </v>
   <v type="int" >       12 </v>
   <v type="int" >       13 </v>
   <v type="int" >       14 </v>
   <v type="int" >       15 </v>
   <v type="int" >       16 </v>
   <v type="int" >       17 </v>
   <v type="int" >       18 </v>
   <v type="int" >       19 </v>
   <v type="int" >       20 </v>
   <v type="int" >       21 </v>
   <v type="int" >       22 </v>
   <v type="int" >       23 </v>
   <v type="int" >       24 </v>
   <v type="int" >       25 </v>
   <v type="int" >       26 </v>
   <v type="int" >       27 </v>
   <v type="int" >       28 </v>
   <v type="int" >       29 </v>
   <v type="int" >       30 </v>
   <v type="int" >       31 </v>
   <v type="int" >       32 </v>
   <v type="int" >       33 </v>
   <v type="int" >       34 </v>
   <v type="int" >       35 </v>
   <v type="int" >       36 </v>
   <v type="int" >       37 </v>
   <v type="int" >       38 </v>
   <v type="int" >       39 </v>
   <v type="int" >       40 </v>
   <v type="int" >       41 </v>
   <v type="int" >       42 </v>
   <v type="int" >       43 </v>
   <v type="int" >       44 </v>
   <v type="int" >       45 </v>
   <v type="int" >       46 </v>
   <v type="int" >       47 </v>
   <v type="int" >       48 </v>
   <v type="int" >       49 </v>
   <v type="int" >       50 </v>
   <v type="int" >       51 </v>
   <v type="int" >       52 </v>
   <v type="int" >       53 </v>
   <v type="int" >       54 </v>
   <v type="int" >       55 </v>
   <v type="int" >       56 </v>
   <v type="int" >       57 </v>
   <v type="int" >       58 </v>
   <v type="int" >       59 </v>
   <v type="int" >       60 </v>
   <v type="int" >       61 </v>
   <v type="int" >       62 </v>
   <v type="int" >       63 </v>
   <v type="int" >       64 </v>
   <v type="int" >       65 </v>
   <v type="int" >       66 </v>
   <v type="int" >       67 </v>
   <v type="int" >       68 </v>
   <v type="int" >       69 </v>
   <v type="int" >       70 </v>
   <v type="int" >       71 </v>
   <v type="int" >       72 </v>
   <v type="int" >       73 </v>
   <v type="int" >       74 </v>
   <v type="int" >       75 </v>
   <v type="int" >       76 </v>
   <v type="int" >       77 </v>
   <v type="int" >       78 </v>
   <v type="int" >       79 </v>
   <v type="int" >       80 </v>
   <v type="int" >       81 </v>
   <v type="int" >       82 </v>
   <v type="int" >       83 </v>
   <v type="int" >       84 </v>
   <v type="int" >       85 </v>
   <v type="int" >       86 </v>
   <v type="int" >       87 </v>
   <v type="int" >       88 </v>
   <v type="int" >       89 </v>
   <v type="int" >       90 </v>
   <v type="int" >       91 </v>
   <v type="int" >       92 </v>
   <v type="int" >       93 </v>
   <v type="int" >       94 </v>
   <v type="int" >       95 </v>
   <v type="int" >       96 </v>
   <v type="int" >       97 </v>
   <v type="int" >       98 </v>
   <v type="int" >       99 </v>
   <v type="int" >      100 </v>
   <v type="int" >      101 </v>
   <v type="int" >      102 </v>
   <v type="int" >      103 </v>
   <v type="int" >      104 </v>
   <v type="int" >      105 </v>
   <v type="int" >      106 </v>
   <v type="int" >      107 </v>
   <v type="int" >      108 </v>
   <v type="int" >      109 </v>
   <v type="int" >      110 </v>
   <v type="int" >      111 </v>
   <v type="int" >      112 </v>
   <v type="int" >      113 </v>
   <v type="int" >      114 </v>
   <v type="int" >      115 </v>
   <v type="int" >      116 </v>
   <v type="int" >      117 </v>
   <v type="int" >      118 </v>
   <v type="int" >      119 </v>
   <v type="int" >      120 </v>
  </varray>
 </primitive_cell>
 <kpoints>
  <generation param="Monkhorst-Pack">
   <v type="int" name="divisions">       2        2        2 </v>
   <v name="usershift">      0.00000000       0.00000000       0.00000000 </v>
   <v name="genvec1">      0.50000000       0.00000000       0.00000000 </v>
   <v name="genvec2">      0.00000000       0.50000000       0.00000000 </v>
   <v name="genvec3">      0.00000000       0.00000000       0.50000000 </v>
   <v name="shift">      0.50000000       0.50000000       0.50000000 </v>
  </generation>
  <varray name="kpointlist" >
   <v>       0.25000000       0.25000000       0.25000000 </v>
   <v>      -0.25000000       0.25000000       0.25000000 </v>
   <v>      -0.25000000      -0.25000000       0.25000000 </v>
   <v>       0.25000000      -0.25000000       0.25000000 </v>
  </varray>
  <varray name="weights" >
   <v>       0.25000000 </v>
   <v>       0.25000000 </v>
   <v>       0.25000000 </v>
   <v>       0.25000000 </v>
  </varray>
 </kpoints>
 <parameters>
  <separator name="general" >
   <i type="string" name="SYSTEM">unknown system</i>
   <i type="logical" name="LCOMPAT"> F  </i>
  </separator>
  <separator name="electronic" >
   <i type="string" name="PREC">accura</i>
   <i name="ENMAX">    520.00000000</i>
   <i name="ENAUG">    628.94500000</i>
   <i name="EDIFF">      0.00001000</i>
   <i type="int" name="IALGO">    38</i>
   <i type="int" name="IWAVPR">    10</i>
   <i type="int" name="NBANDS">   408</i>
   <i type="int" name="NBANDSLOW">    -1</i>
   <i type="int" name="NBANDSHIGH">    -1</i>
   <i name="NELECT">    680.00000000</i>
   <i type="int" name="TURBO">     0</i>
   <i type="int" name="IRESTART">     0</i>
   <i type="int" name="NREBOOT">     0</i>
   <i type="int" name="NMIN">     0</i>
   <i name="EREF">      0.00000000</i>
   <separator name="electronic smearing" >
    <i type="int" name="ISMEAR">     0</i>
    <i name="SIGMA">      0.05000000</i>
    <i name="KSPACING">      0.50000000</i>
    <i type="logical" name="KGAMMA"> T  </i>
    <i type="logical" name="KBLOWUP"> T  </i>
   </separator>
   <separator name="electronic projectors" >
    <i type="logical" name="LREAL"> T  </i>
    <v name="ROPT">     -0.00025000     -0.00025000     -0.00025000     -0.00025000</v>
    <i type="int" name="LMAXPAW">  -100</i>
    <i type="int" name="LMAXMIX">     2</i>
    <i type="logical" name="NLSPLINE"> F  </i>
   </separator>
   <separator name="electronic startup" >
    <i type="int" name="ISTART">     0</i>
    <i type="int" name="ICHARG">     2</i>
    <i type="int" name="INIWAV">     1</i>
   </separator>
   <separator name="electronic spin" >
    <i type="int" name="ISPIN">     1</i>
    <i type="logical" name="LNONCOLLINEAR"> F  </i>
    <v name="MAGMOM">      1.00000000      1.00000000      1.00000000      1.00000000      1.00000000      1.00000000      1.00000000      1.00000000      1.00000000      1.00000000      1.00000000      1.00000000      1.00000000      1.00000000      1.00000000      1.00000000      1.00000000      1.00000000      1.00000000      1.00000000
      1.00000000      1.00000000      1.00000000      1.00000000      1.00000000      1.00000000      1.00000000      1.00000000      1.00000000      1.00000000      1.00000000      1.00000000      1.00000000      1.00000000      1.00000000      1.00000000      1.00000000      1.00000000      1.00000000      1.00000000
      1.00000000      1.00000000      1.00000000      1.00000000      1.00000000      1.00000000      1.00000000      1.00000000      1.00000000      1.00000000      1.00000000      1.00000000      1.00000000      1.00000000      1.00000000      1.00000000      1.00000000      1.00000000      1.00000000      1.00000000
      1.00000000      1.00000000      1.00000000      1.00000000      1.00000000      1.00000000      1.00000000      1.00000000      1.00000000      1.00000000      1.00000000      1.00000000      1.00000000      1.00000000      1.00000000      1.00000000      1.00000000      1.00000000      1.00000000      1.00000000
      1.00000000      1.00000000      1.00000000      1.00000000      1.00000000      1.00000000      1.00000000      1.00000000      1.00000000      1.00000000      1.00000000      1.00000000      1.00000000      1.00000000      1.00000000      1.00000000      1.00000000      1.00000000      1.00000000      1.00000000
      1.00000000      1.00000000      1.00000000      1.00000000      1.00000000      1.00000000      1.00000000      1.00000000      1.00000000      1.00000000      1.00000000      1.00000000      1.00000000      1.00000000      1.00000000      1.00000000      1.00000000      1.00000000      1.00000000      1.00000000
</v>
    <i name="NUPDOWN">     -1.00000000</i>
    <i type="logical" name="LSORBIT"> F  </i>
    <v name="SAXIS">      0.00000000      0.00000000      1.00000000</v>
    <i type="logical" name="LSPIRAL"> F  </i>
    <v name="QSPIRAL">      0.00000000      0.00000000      0.00000000</v>
    <i type="logical" name="LZEROZ"> F  </i>
   </separator>
   <separator name="electronic exchange-correlation" >
    <i type="logical" name="LASPH"> T  </i>
    <i type="logical" name="LMETAGGA"> F  </i>
   </separator>
   <separator name="electronic convergence" >
    <i type="int" name="NELM">   100</i>
    <i type="int" name="NELMDL">    -5</i>
    <i type="int" name="NELMIN">     2</i>
    <i name="ENINI">    520.00000000</i>
    <separator name="electronic convergence detail" >
     <i type="logical" name="LDIAG"> T  </i>
     <i type="logical" name="LSUBROT"> F  </i>
     <i name="WEIMIN">      0.00000000</i>
     <i name="EBREAK">      0.00000001</i>
     <i name="DEPER">      0.30000000</i>
     <i type="int" name="NRMM">     4</i>
     <i name="TIME">      0.40000000</i>
    </separator>
   </separator>
   <separator name="electronic mixer" >
    <i name="AMIX">      0.40000000</i>
    <i name="BMIX">      1.00000000</i>
    <i name="AMIN">      0.10000000</i>
    <i name="AMIX_MAG">      1.60000000</i>
    <i name="BMIX_MAG">      1.00000000</i>
    <separator name="electronic mixer details" >
     <i type="int" name="IMIX">     4</i>
     <i type="logical" name="MIXFIRST"> F  </i>
     <i type="int" name="MAXMIX">   -45</i>
     <i name="WC">    100.00000000</i>
     <i type="int" name="INIMIX">     1</i>
     <i type="int" name="MIXPRE">     1</i>
     <i type="int" name="MREMOVE">     5</i>
    </separator>
   </separator>
   <separator name="electronic dipolcorrection" >
    <i type="logical" name="LDIPOL"> F  </i>
    <i type="logical" name="LMONO"> F  </i>
    <i type="int" name="IDIPOL">     0</i>
    <i name="EPSILON">      1.00000000</i>
    <v name="DIPOL">   -100.00000000   -100.00000000   -100.00000000</v>
    <i name="EFIELD">      0.00000000</i>
   </separator>
  </separator>
  <separator name="grids" >
   <i type="int" name="NGX">    84</i>
   <i type="int" name="NGY">    84</i>
   <i type="int" name="NGZ">    84</i>
   <i type="int" name="NGXF">   168</i>
   <i type="int" name="NGYF">   168</i>
   <i type="int" name="NGZF">   168</i>
   <i type="logical" name="ADDGRID"> F  </i>
  </separator>
  <separator name="ionic" >
   <i type="int" name="NSW">     0</i>
   <i type="int" name="IBRION">    -1</i>
   <i type="int" name="MDALGO">     0</i>
   <i type="int" name="ISIF">     2</i>
   <i name="PSTRESS">      0.00000000</i>
   <i name="EDIFFG">      0.00010000</i>
   <i type="int" name="NFREE">     0</i>
   <i name="POTIM">      0.50000000</i>
   <i name="SMASS">     -3.00000000</i>
   <i name="SCALEE">      1.00000000</i>
  </separator>
  <separator name="ionic md" >
   <i name="TEBEG">      0.00010000</i>
   <i name="TEEND">      0.00010000</i>
   <i type="int" name="NBLOCK">     1</i>
   <i type="int" name="KBLOCK">     1</i>
   <i type="int" name="NPACO">   256</i>
   <i name="APACO">     10.00000000</i>
  </separator>
  <separator name="symmetry" >
   <i type="int" name="ISYM">     2</i>
   <i name="SYMPREC">      0.00001000</i>
  </separator>
  <separator name="dos" >
   <i type="int" name="LORBIT">     0</i>
   <v name="RWIGS">     -1.00000000     -1.00000000     -1.00000000     -1.00000000</v>
   <i type="int" name="NEDOS">   301</i>
   <i name="EMIN">     10.00000000</i>
   <i name="EMAX">    -10.00000000</i>
   <i name="EFERMI">      0.00000000</i>
  </separator>
  <separator name="writing" >
   <i type="int" name="NWRITE">     2</i>
   <i type="logical" name="LWAVE"> F  </i>
   <i type="logical" name="LDOWNSAMPLE"> F  </i>
   <i type="logical" name="LCHARG"> F  </i>
   <i type="logical" name="LPARD"> F  </i>
   <i type="logical" name="LVTOT"> F  </i>
   <i type="logical" name="LVHAR"> F  </i>
   <i type="logical" name="LELF"> F  </i>
   <i type="logical" name="LOPTICS"> F  </i>
   <v name="STM">      0.00000000      0.00000000      0.00000000      0.00000000      0.00000000      0.00000000      0.00000000</v>
  </separator>
  <separator name="performance" >
   <i type="int" name="NPAR">     8</i>
   <i type="int" name="NSIM">     4</i>
   <i type="int" name="NBLK">    -1</i>
   <i type="logical" name="LPLANE"> T  </i>
   <i type="logical" name="LSCALAPACK"> T  </i>
   <i type="logical" name="LSCAAWARE"> F  </i>
   <i type="logical" name="LSCALU"> F  </i>
   <i type="logical" name="LASYNC"> F  </i>
   <i type="logical" name="LORBITALREAL"> F  </i>
  </separator>
  <separator name="miscellaneous" >
   <i type="int" name="IDIOT">     3</i>
   <i type="int" name="PHON_NSTRUCT">    -1</i>
   <i type="logical" name="LMUSIC"> F  </i>
   <v name="POMASS">     87.62000000      7.01000000     26.98100000     16.00000000</v>
   <v name="DARWINR">      0.00000000      0.00000000      0.00000000      0.00000000</v>
   <v name="DARWINV">      1.00000000      1.00000000      1.00000000      1.00000000</v>
   <i type="logical" name="LCORR"> T  </i>
  </separator>
  <i type="logical" name="GGA_COMPAT"> T  </i>
  <i type="logical" name="LBERRY"> F  </i>
  <i type="int" name="ICORELEVEL">     0</i>
  <i type="logical" name="LDAU"> F  </i>
  <i type="int" name="I_CONSTRAINED_M">     0</i>
  <separator name="electronic exchange-correlation" >
   <i type="string" name="GGA">PE</i>
   <i type="int" name="VOSKOWN">     0</i>
   <i type="logical" name="LHFCALC"> F  </i>
   <i type="string" name="PRECFOCK"></i>
   <i type="logical" name="LSYMGRAD"> F  </i>
   <i type="logical" name="LHFONE"> F  </i>
   <i type="logical" name="LRHFCALC"> F  </i>
   <i type="logical" name="LTHOMAS"> F  </i>
   <i type="logical" name="LMODELHF"> F  </i>
   <i type="logical" name="LFOCKACE"> F  </i>
   <i name="ENCUT4O">     -1.00000000</i>
   <i type="int" name="EXXOEP">     0</i>
   <i type="int" name="FOURORBIT">     0</i>
   <i name="AEXX">      0.00000000</i>
   <i name="HFALPHA">      0.00000000</i>
   <i name="MCALPHA">      0.00000000</i>
   <i name="ALDAX">      1.00000000</i>
   <i name="AGGAX">      1.00000000</i>
   <i name="ALDAC">      1.00000000</i>
   <i name="AGGAC">      1.00000000</i>
   <i type="int" name="NKREDX">     1</i>
   <i type="int" name="NKREDY">     1</i>
   <i type="int" name="NKREDZ">     1</i>
   <i type="logical" name="SHIFTRED"> F  </i>
   <i type="logical" name="ODDONLY"> F  </i>
   <i type="logical" name="EVENONLY"> F  </i>
   <i type="int" name="LMAXFOCK">     0</i>
   <i type="int" name="NMAXFOCKAE">     0</i>
   <i type="logical" name="LFOCKAEDFT"> F  </i>
   <i name="HFSCREEN">      0.00000000</i>
   <i name="HFSCREENC">      0.00000000</i>
   <i type="int" name="NBANDSGWLOW">     0</i>
  </separator>
  <separator name="vdW DFT" >
   <i type="logical" name="LUSE_VDW"> F  </i>
   <i type="int" name="IVDW_NL">     1</i>
   <i type="logical" name="LSPIN_VDW"> F  </i>
   <i name="Zab_VDW">     -0.84910000</i>
   <i name="PARAM1">      0.12340000</i>
   <i name="PARAM2">      1.00000000</i>
   <i name="PARAM3">      0.00000000</i>
  </separator>
  <separator name="model GW" >
   <i type="int" name="MODEL_GW">     0</i>
   <i name="MODEL_EPS0">      6.61897979</i>
   <i name="MODEL_ALPHA">      1.00000000</i>
  </separator>
  <separator name="linear response parameters" >
   <i type="logical" name="LEPSILON"> F  </i>
   <i type="logical" name="LRPA"> F  </i>
   <i type="logical" name="LNABLA"> F  </i>
   <i type="logical" name="LVEL"> F  </i>
   <i name="CSHIFT">      0.10000000</i>
   <i name="OMEGAMAX">     -1.00000000</i>
   <i name="DEG_THRESHOLD">      0.00200000</i>
   <i name="RTIME">     -0.10000000</i>
   <i name="WPLASMAI">      0.00000000</i>
   <v name="DFIELD">      0.00000000      0.00000000      0.00000000</v>
   <v name="WPLASMA">      0.00000000      0.00000000      0.00000000      0.00000000      0.00000000      0.00000000      0.00000000      0.00000000      0.00000000</v>
  </separator>
  <separator name="orbital magnetization" >
   <i type="logical" name="NUCIND"> F  </i>
   <v name="MAGPOS">      0.00000000      0.00000000      0.00000000</v>
   <i type="logical" name="LNICSALL"> T  </i>
   <i type="logical" name="ORBITALMAG"> F  </i>
   <i type="logical" name="LMAGBLOCH"> F  </i>
   <i type="logical" name="LCHIMAG"> F  </i>
   <i type="logical" name="LGAUGE"> T  </i>
   <i type="int" name="MAGATOM">     0</i>
   <v name="MAGDIPOL">      0.00000000      0.00000000      0.00000000</v>
   <v name="AVECCONST">      0.00000000      0.00000000      0.00000000</v>
  </separator>
  <separator name="response functions" >
   <i type="logical" name="LALL_IN_ONE"> F  </i>
   <i type="int" name="IALL_IN_ONE">    -1</i>
   <i type="int" name="NBANDS_WAVE">    -1</i>
   <i type="logical" name="LFINITE_TEMPERATURE"> F  </i>
   <i type="logical" name="LADDER"> F  </i>
   <i type="logical" name="LRPAFORCE"> F  </i>
   <i type="logical" name="LFXC"> F  </i>
   <i type="logical" name="LHARTREE"> T  </i>
   <i type="int" name="IBSE">     0</i>
   <v type="int" name="KPOINT">    -1     0     0     0</v>
   <i type="logical" name="LTCTC"> F  </i>
   <i type="logical" name="LTCTE"> F  </i>
   <i type="logical" name="LTETE"> F  </i>
   <i type="logical" name="LTRIPLET"> F  </i>
   <i type="logical" name="LFXCEPS"> F  </i>
   <i type="logical" name="LFXHEG"> F  </i>
   <i type="int" name="NATURALO">     2</i>
   <i type="logical" name="LHOLEGF"> F  </i>
   <i type="logical" name="L2ORDER"> F  </i>
   <i type="logical" name="LDMP1"> F  </i>
   <i type="logical" name="LMP2LT"> F  </i>
   <i type="logical" name="LSMP2LT"> F  </i>
   <i type="logical" name="LGWLF"> F  </i>
   <i name="ENCUTGW">     -1.60000002</i>
   <i name="ENCUTGWSOFT">     -1.60000002</i>
   <i name="ENCUTLF">     -1.00000000</i>
   <i type="logical" name="LESF_SPLINES"> F  </i>
   <i type="int" name="LMAXMP2">    -1</i>
   <i name="SCISSOR">      0.00000000</i>
   <i type="int" name="NOMEGA">     0</i>
   <i type="int" name="NOMEGAR">     0</i>
   <i type="int" name="NBANDSGW">    -1</i>
   <i type="int" name="NBANDSO">    -1</i>
   <i type="int" name="NBANDSV">    -1</i>
   <i type="int" name="NELMGW">     1</i>
   <i type="int" name="NELMHF">     1</i>
   <i type="int" name="DIM">     3</i>
   <i type="int" name="IESPILON">     4</i>
   <i type="int" name="ANTIRES">     0</i>
   <i name="OMEGAMAX">    -30.00000000</i>
   <i name="OMEGAMIN">    -30.00000000</i>
   <i name="OMEGATL">   -200.00000000</i>
   <i type="int" name="OMEGAGRID">     0</i>
   <i name="CSHIFT">     -0.10000000</i>
   <i type="logical" name="LSELFENERGY"> F  </i>
   <i type="logical" name="LSPECTRAL"> F  </i>
   <i type="logical" name="LSPECTRALGW"> F  </i>
   <i type="logical" name="LSINGLES"> F  </i>
   <i type="logical" name="LFERMIGW"> F  </i>
   <i type="logical" name="ODDONLYGW"> F  </i>
   <i type="logical" name="EVENONLYGW"> F  </i>
   <i type="int" name="NKREDLFX">     1</i>
   <i type="int" name="NKREDLFY">     1</i>
   <i type="int" name="NKREDLFZ">     1</i>
   <i type="int" name="MAXMEM">  2800</i>
   <i type="int" name="TELESCOPE">     0</i>
   <i type="int" name="NTAUPAR">    -1</i>
   <i type="int" name="NOMEGAPAR">    -1</i>
   <i name="DAMP_NEWTON">      0.80000001</i>
   <i name="LAMBDA">      1.00000000</i>
  </separator>
  <separator name="External order field" >
   <i name="OFIELD_KAPPA">      0.00000000</i>
   <v name="OFIELD_K">      0.00000000      0.00000000      0.00000000</v>
   <i name="OFIELD_Q6_NEAR">      0.00000000</i>
   <i name="OFIELD_Q6_FAR">      0.00000000</i>
   <i name="OFIELD_A">      0.00000000</i>
  </separator>
  <separator name="optional k-points parameters" >
   <i type="int" name="KPOINTS_OPT_MODE">     1</i>
   <i type="logical" name="LKPOINTS_OPT"> F  </i>
  </separator>
 </parameters>
 <atominfo>
  <atoms>     120 </atoms>
  <types>       4 </types>
  <array name="atoms" >
   <dimension dim="1">ion</dimension>
   <field type="string">element</field>
   <field type="int">atomtype</field>
   <set>
    <rc><c>Sr</c><c>   1</c></rc>
    <rc><c>Sr</c><c>   1</c></rc>
    <rc><c>Sr</c><c>   1</c></rc>
    <rc><c>Sr</c><c>   1</c></rc>
    <rc><c>Sr</c><c>   1</c></rc>
    <rc><c>Sr</c><c>   1</c></rc>
    <rc><c>Sr</c><c>   1</c></rc>
    <rc><c>Sr</c><c>   1</c></rc>
    <rc><c>Sr</c><c>   1</c></rc>
    <rc><c>Sr</c><c>   1</c></rc>
    <rc><c>Sr</c><c>   1</c></rc>
    <rc><c>Sr</c><c>   1</c></rc>
    <rc><c>Sr</c><c>   1</c></rc>
    <rc><c>Sr</c><c>   1</c></rc>
    <rc><c>Sr</c><c>   1</c></rc>
    <rc><c>Sr</c><c>   1</c></rc>
    <rc><c>Sr</c><c>   1</c></rc>
    <rc><c>Sr</c><c>   1</c></rc>
    <rc><c>Sr</c><c>   1</c></rc>
    <rc><c>Sr</c><c>   1</c></rc>
    <rc><c>Li</c><c>   2</c></rc>
    <rc><c>Li</c><c>   2</c></rc>
    <rc><c>Li</c><c>   2</c></rc>
    <rc><c>Li</c><c>   2</c></rc>
    <rc><c>Li</c><c>   2</c></rc>
    <rc><c>Li</c><c>   2</c></rc>
    <rc><c>Li</c><c>   2</c></rc>
    <rc><c>Li</c><c>   2</c></rc>
    <rc><c>Li</c><c>   2</c></rc>
    <rc><c>Li</c><c>   2</c></rc>
    <rc><c>Li</c><c>   2</c></rc>
    <rc><c>Li</c><c>   2</c></rc>
    <rc><c>Li</c><c>   2</c></rc>
    <rc><c>Li</c><c>   2</c></rc>
    <rc><c>Li</c><c>   2</c></rc>
    <rc><c>Li</c><c>   2</c></rc>
    <rc><c>Li</c><c>   2</c></rc>
    <rc><c>Li</c><c>   2</c></rc>
    <rc><c>Li</c><c>   2</c></rc>
    <rc><c>Li</c><c>   2</c></rc>
    <rc><c>Al</c><c>   3</c></rc>
    <rc><c>Al</c><c>   3</c></rc>
    <rc><c>Al</c><c>   3</c></rc>
    <rc><c>Al</c><c>   3</c></rc>
    <rc><c>Al</c><c>   3</c></rc>
    <rc><c>Al</c><c>   3</c></rc>
    <rc><c>Al</c><c>   3</c></rc>
    <rc><c>Al</c><c>   3</c></rc>
    <rc><c>Al</c><c>   3</c></rc>
    <rc><c>Al</c><c>   3</c></rc>
    <rc><c>Al</c><c>   3</c></rc>
    <rc><c>Al</c><c>   3</c></rc>
    <rc><c>Al</c><c>   3</c></rc>
    <rc><c>Al</c><c>   3</c></rc>
    <rc><c>Al</c><c>   3</c></rc>
    <rc><c>Al</c><c>   3</c></rc>
    <rc><c>Al</c><c>   3</c></rc>
    <rc><c>Al</c><c>   3</c></rc>
    <rc><c>Al</c><c>   3</c></rc>
    <rc><c>Al</c><c>   3</c></rc>
    <rc><c>O </c><c>   4</c></rc>
    <rc><c>O </c><c>   4</c></rc>
    <rc><c>O </c><c>   4</c></rc>
    <rc><c>O </c><c>   4</c></rc>
    <rc><c>O </c><c>   4</c></rc>
    <rc><c>O </c><c>   4</c></rc>
    <rc><c>O </c><c>   4</c></rc>
    <rc><c>O </c><c>   4</c></rc>
    <rc><c>O </c><c>   4</c></rc>
    <rc><c>O </c><c>   4</c></rc>
    <rc><c>O </c><c>   4</c></rc>
    <rc><c>O </c><c>   4</c></rc>
    <rc><c>O </c><c>   4</c></rc>
    <rc><c>O </c><c>   4</c></rc>
    <rc><c>O </c><c>   4</c></rc>
    <rc><c>O </c><c>   4</c></rc>
    <rc><c>O </c><c>   4</c></rc>
    <rc><c>O </c><c>   4</c></rc>
    <rc><c>O </c><c>   4</c></rc>
    <rc><c>O </c><c>   4</c></rc>
    <rc><c>O </c><c>   4</c></rc>
    <rc><c>O </c><c>   4</c></rc>
    <rc><c>O </c><c>   4</c></rc>
    <rc><c>O </c><c>   4</c></rc>
    <rc><c>O </c><c>   4</c></rc>
    <rc><c>O </c><c>   4</c></rc>
    <rc><c>O </c><c>   4</c></rc>
    <rc><c>O </c><c>   4</c></rc>
    <rc><c>O </c><c>   4</c></rc>
    <rc><c>O </c><c>   4</c></rc>
    <rc><c>O </c><c>   4</c></rc>
    <rc><c>O </c><c>   4</c></rc>
    <rc><c>O </c><c>   4</c></rc>
    <rc><c>O </c><c>   4</c></rc>
    <rc><c>O </c><c>   4</c></rc>
    <rc><c>O </c><c>   4</c></rc>
    <rc><c>O </c><c>   4</c></rc>
    <rc><c>O </c><c>   4</c></rc>
    <rc><c>O </c><c>   4</c></rc>
    <rc><c>O </c><c>   4</c></rc>
    <rc><c>O </c><c>   4</c></rc>
    <rc><c>O </c><c>   4</c></rc>
    <rc><c>O </c><c>   4</c></rc>
    <rc><c>O </c><c>   4</c></rc>
    <rc><c>O </c><c>   4</c></rc>
    <rc><c>O </c><c>   4</c></rc>
    <rc><c>O </c><c>   4</c></rc>
    <rc><c>O </c><c>   4</c></rc>
    <rc><c>O </c><c>   4</c></rc>
    <rc><c>O </c><c>   4</c></rc>
    <rc><c>O </c><c>   4</c></rc>
    <rc><c>O </c><c>   4</c></rc>
    <rc><c>O </c><c>   4</c></rc>
    <rc><c>O </c><c>   4</c></rc>
    <rc><c>O </c><c>   4</c></rc>
    <rc><c>O </c><c>   4</c></rc>
    <rc><c>O </c><c>   4</c></rc>
    <rc><c>O </c><c>   4</c></rc>
    <rc><c>O </c><c>   4</c></rc>
    <rc><c>O </c><c>   4</c></rc>
   </set>
  </array>
  <array name="atomtypes" >
   <dimension dim="1">type</dimension>
   <field type="int">atomspertype</field>
   <field type="string">element</field>
   <field>mass</field>
   <field>valence</field>
   <field type="string">pseudopotential</field>
   <set>
    <rc><c>  20</c><c>Sr</c><c>     87.62000000</c><c>     10.00000000</c><c>  PAW_PBE Sr_sv 07Sep2000               </c></rc>
    <rc><c>  20</c><c>Li</c><c>      7.01000000</c><c>      3.00000000</c><c>  PAW_PBE Li_sv 10Sep2004               </c></rc>
    <rc><c>  20</c><c>Al</c><c>     26.98100000</c><c>      3.00000000</c><c>  PAW_PBE Al 04Jan2001                  </c></rc>
    <rc><c>  60</c><c>O </c><c>     16.00000000</c><c>      6.00000000</c><c>  PAW_PBE O 08Apr2002                   </c></rc>
   </set>
  </array>
 </atominfo>
 <structure name="initialpos" >
  <crystal>
   <varray name="basis" >
    <v>      10.98011824       0.00000000       0.00000000 </v>
    <v>       0.00000000      10.98011824       0.00000000 </v>
    <v>       0.00000000       0.00000000      10.98011824 </v>
   </varray>
   <i name="volume">   1323.79595765 </i>
   <varray name="rec_basis" >
    <v>       0.09107370       0.00000000       0.00000000 </v>
    <v>       0.00000000       0.09107370       0.00000000 </v>
    <v>       0.00000000       0.00000000       0.09107370 </v>
   </varray>
  </crystal>
  <varray name="positions" >
   <v>       0.57536140       0.11353167       0.98555502 </v>
   <v>       0.76958352       0.39062748       0.64135283 </v>
   <v>       0.89813307       0.01463098       0.44615994 </v>
   <v>       0.36940689       0.61497263       0.90355325 </v>
   <v>       0.26662803       0.46167268       0.63134736 </v>
   <v>       0.20426305       0.40582142       0.32695913 </v>
   <v>       0.57435904       0.94612378       0.52455117 </v>
   <v>       0.32272565       0.97962122       0.55833539 </v>
   <v>       0.14223072       0.87010101       0.35137836 </v>
   <v>       0.58239318       0.69463806       0.29778203 </v>
   <v>       0.37004208       0.91341059       0.16486725 </v>
   <v>       0.76620565       0.73863677       0.52317183 </v>
   <v>       0.42413885       0.47657064       0.17199449 </v>
   <v>       0.65196037       0.27130853       0.20592475 </v>
   <v>       0.84835721       0.78253726       0.17662774 </v>
   <v>       0.04561610       0.86467061       0.66992299 </v>
   <v>       0.11846664       0.12916915       0.30656556 </v>
   <v>       0.65526068       0.60002721       0.77966637 </v>
   <v>       0.53812963       0.39966546       0.43787143 </v>
   <v>       0.97826103       0.52557748       0.13380354 </v>
   <v>       0.73677799       0.93759049       0.98625081 </v>
   <v>       0.74102907       0.48608644       0.38133111 </v>
   <v>       0.74178248       0.18208973       0.48676108 </v>
   <v>       0.37023278       0.23917086       0.09627968 </v>
   <v>       0.35824537       0.11938200       0.87357762 </v>
   <v>       0.09715077       0.54609402       0.88057466 </v>
   <v>       0.16992668       0.04790922       0.79856601 </v>
   <v>       0.87454659       0.19955461       0.27479974 </v>
   <v>       0.00456370       0.50278286       0.70327726 </v>
   <v>       0.35704900       0.24116918       0.53949988 </v>
   <v>       0.86807560       0.43548036       0.86700496 </v>
   <v>       0.43572700       0.39394072       0.80328539 </v>
   <v>       0.22226619       0.37357112       0.03212451 </v>
   <v>       0.14268548       0.74660927       0.87863423 </v>
   <v>       0.50384115       0.61165318       0.53680303 </v>
   <v>       0.70500438       0.52257823       0.09750716 </v>
   <v>       0.03189891       0.29672570       0.14022607 </v>
   <v>       0.85055963       0.25960787       0.95017808 </v>
   <v>       0.94590428       0.98216036       0.88399282 </v>
   <v>       0.28901714       0.88564435       0.89583517 </v>
   <v>       0.67931557       0.99974837       0.25041367 </v>
   <v>       0.24674855       0.26610907       0.76423567 </v>
   <v>       0.29049360       0.67721621       0.41479246 </v>
   <v>       0.89519362       0.05487323       0.09005718 </v>
   <v>       0.32355245       0.71946986       0.64688378 </v>
   <v>       0.55727122       0.79695750       0.03820724 </v>
   <v>       0.60290642       0.36900532       0.94653477 </v>
   <v>       0.53377763       0.20242657       0.69510748 </v>
   <v>       0.82984048       0.09761655       0.71383024 </v>
   <v>       0.41905173       0.14265662       0.32313595 </v>
   <v>       0.21034045       0.68836805       0.14171236 </v>
   <v>       0.18703526       0.10204235       0.04895940 </v>
   <v>       0.90002867       0.67673062       0.89587404 </v>
   <v>       0.98569313       0.61934469       0.42954774 </v>
   <v>       0.07167227       0.18233137       0.59877353 </v>
   <v>       0.94547660       0.33582286       0.43942287 </v>
   <v>       0.49449131       0.90377852       0.78120433 </v>
   <v>       0.03521617       0.26861971       0.85531875 </v>
   <v>       0.74659251       0.86762830       0.78159874 </v>
   <v>       0.09132727       0.86203743       0.02851858 </v>
   <v>       0.52119111       0.02116647       0.26241804 </v>
   <v>       0.21028341       0.77223599       0.53572010 </v>
   <v>       0.48193305       0.29046660       0.02244538 </v>
   <v>       0.79847686       0.94608358       0.60841361 </v>
   <v>       0.41984756       0.28701464       0.28259805 </v>
   <v>       0.68192677       0.14859487       0.65160685 </v>
   <v>       0.99588352       0.08352885       0.74522639 </v>
   <v>       0.35428760       0.08353413       0.03479452 </v>
   <v>       0.00049811       0.32632771       0.28752510 </v>
   <v>       0.61220727       0.48893526       0.25227768 </v>
   <v>       0.74652698       0.08725003       0.11756958 </v>
   <v>       0.17549500       0.17569292       0.89730466 </v>
   <v>       0.74290482       0.12110880       0.33662526 </v>
   <v>       0.62347627       0.33852404       0.78594585 </v>
   <v>       0.85694912       0.27379457       0.78001360 </v>
   <v>       0.43125350       0.61892483       0.68794767 </v>
   <v>       0.01297487       0.41367326       0.96825402 </v>
   <v>       0.72543067       0.33136335       0.02655325 </v>
   <v>       0.17283639       0.97174001       0.12168026 </v>
   <v>       0.17983959       0.63713988       0.71890749 </v>
   <v>       0.76371352       0.34625920       0.39177912 </v>
   <v>       0.34499383       0.84382337       0.73965257 </v>
   <v>       0.53078317       0.51099277       0.97782792 </v>
   <v>       0.71321809       0.87614648       0.35864609 </v>
   <v>       0.48372514       0.92388304       0.93055900 </v>
   <v>       0.10267946       0.02526833       0.51075233 </v>
   <v>       0.64091246       0.55530190       0.53067304 </v>
   <v>       0.08988449       0.31891148       0.71089437 </v>
   <v>       0.93816722       0.03523014       0.25358760 </v>
   <v>       0.86209398       0.58787622       0.34692695 </v>
   <v>       0.76244375       0.02085227       0.84400788 </v>
   <v>       0.12047560       0.95373361       0.90729522 </v>
   <v>       0.15779355       0.26605895       0.49585489 </v>
   <v>       0.59998018       0.83641201       0.68763383 </v>
   <v>       0.46505984       0.06680737       0.75778184 </v>
   <v>       0.20626051       0.53618621       0.09284315 </v>
   <v>       0.25371970       0.76990154       0.00678294 </v>
   <v>       0.82954039       0.61077547       0.00996579 </v>
   <v>       0.48646033       0.18317862       0.49233097 </v>
   <v>       0.18928554       0.23024674       0.13985412 </v>
   <v>       0.31713799       0.04352556       0.36465093 </v>
   <v>       0.97011526       0.17528611       0.02028041 </v>
   <v>       0.13604197       0.62546211       0.36430218 </v>
   <v>       0.05243556       0.67832630       0.97432756 </v>
   <v>       0.97341019       0.77374502       0.47856712 </v>
   <v>       0.87159572       0.56587121       0.76751319 </v>
   <v>       0.91876841       0.22787191       0.54056533 </v>
   <v>       0.05319253       0.75526434       0.18168126 </v>
   <v>       0.92510656       0.90577177       0.03205677 </v>
   <v>       0.28111958       0.39541956       0.86277017 </v>
   <v>       0.29549117       0.74327497       0.25480552 </v>
   <v>       0.63145729       0.88681799       0.13421885 </v>
   <v>       0.36728813       0.51646271       0.42754347 </v>
   <v>       0.98317286       0.48199510       0.52173162 </v>
   <v>       0.88317258       0.78444745       0.77580488 </v>
   <v>       0.25001289       0.12119711       0.66380192 </v>
   <v>       0.67996622       0.77789734       0.91363281 </v>
   <v>       0.40523695       0.29825174       0.67106914 </v>
   <v>       0.43429554       0.76630324       0.45419375 </v>
   <v>       0.45967029       0.70795689       0.09989101 </v>
  </varray>
 </structure>
 <calculation>
  <scstep>
   <time name="dav">    4.34    4.38</time>
   <time name="total">    4.55    4.59</time>
   <energy>
    <i name="alphaZ">   2707.09264184 </i>
    <i name="ewald"> -37617.39363153 </i>
    <i name="hartreedc"> -10042.95863607 </i>
    <i name="XCdc">   2137.24336387 </i>
    <i name="pawpsdc">  36335.68368304 </i>
    <i name="pawaedc"> -35832.99336492 </i>
    <i name="eentropy">     -0.01452179 </i>
    <i name="bandstr">    154.10372206 </i>
    <i name="atom">  47928.32282246 </i>
    <i name="e_fr_energy">   5769.08607896 </i>
    <i name="e_wo_entrp">   5769.10060075 </i>
    <i name="e_0_energy">   5769.09333985 </i>
   </energy>
  </scstep>
  <scstep>
   <time name="dav">    7.79    8.26</time>
   <time name="total">    7.79    8.26</time>
   <energy>
    <i name="e_fr_energy">   -216.84977666 </i>
    <i name="e_wo_entrp">   -216.84977666 </i>
    <i name="e_0_energy">   -216.84977666 </i>
   </energy>
  </scstep>
  <scstep>
   <time name="dav">    5.03    5.03</time>
   <time name="total">    5.03    5.03</time>
   <energy>
    <i name="e_fr_energy">   -786.95892831 </i>
    <i name="e_wo_entrp">   -786.95892831 </i>
    <i name="e_0_energy">   -786.95892831 </i>
   </energy>
  </scstep>
  <scstep>
   <time name="dav">    6.91    6.91</time>
   <time name="total">    6.91    6.91</time>
   <energy>
    <i name="e_fr_energy">   -834.57749106 </i>
    <i name="e_wo_entrp">   -834.57749106 </i>
    <i name="e_0_energy">   -834.57749106 </i>
   </energy>
  </scstep>
  <scstep>
   <time name="dav">    6.10    6.11</time>
   <time name="total">    6.22    6.23</time>
   <energy>
    <i name="e_fr_energy">   -839.67048299 </i>
    <i name="e_wo_entrp">   -839.67048299 </i>
    <i name="e_0_energy">   -839.67048299 </i>
   </energy>
  </scstep>
  <scstep>
   <time name="dav">    4.60    4.61</time>
   <time name="total">    4.92    4.92</time>
   <energy>
    <i name="e_fr_energy">   -720.23480529 </i>
    <i name="e_wo_entrp">   -720.23480529 </i>
    <i name="e_0_energy">   -720.23480529 </i>
   </energy>
  </scstep>
  <scstep>
   <time name="dav">    5.80    5.85</time>
   <time name="total">    6.11    6.16</time>
   <energy>
    <i name="e_fr_energy">   -721.45639391 </i>
    <i name="e_wo_entrp">   -721.45639391 </i>
    <i name="e_0_energy">   -721.45639391 </i>
   </energy>
  </scstep>
  <scstep>
   <time name="dav">    4.83    4.83</time>
   <time name="total">    5.15    5.15</time>
   <energy>
    <i name="e_fr_energy">   -720.80808623 </i>
    <i name="e_wo_entrp">   -720.80808623 </i>
    <i name="e_0_energy">   -720.80808623 </i>
   </energy>
  </scstep>
  <scstep>
   <time name="dav">    5.21    5.22</time>
   <time name="total">    5.51    5.53</time>
   <energy>
    <i name="e_fr_energy">   -719.88525799 </i>
    <i name="e_wo_entrp">   -719.88525799 </i>
    <i name="e_0_energy">   -719.88525799 </i>
   </energy>
  </scstep>
  <scstep>
   <time name="dav">    4.98    4.98</time>
   <time name="total">    5.30    5.31</time>
   <energy>
    <i name="e_fr_energy">   -719.97036738 </i>
    <i name="e_wo_entrp">   -719.97036738 </i>
    <i name="e_0_energy">   -719.97036738 </i>
   </energy>
  </scstep>
  <scstep>
   <time name="dav">    5.54    5.55</time>
   <time name="total">    5.86    5.87</time>
   <energy>
    <i name="e_fr_energy">   -719.96709018 </i>
    <i name="e_wo_entrp">   -719.96709018 </i>
    <i name="e_0_energy">   -719.96709018 </i>
   </energy>
  </scstep>
  <scstep>
   <time name="dav">    4.96    4.96</time>
   <time name="total">    5.28    5.28</time>
   <energy>
    <i name="e_fr_energy">   -719.97312622 </i>
    <i name="e_wo_entrp">   -719.97312622 </i>
    <i name="e_0_energy">   -719.97312622 </i>
   </energy>
  </scstep>
  <scstep>
   <time name="dav">    6.06    6.09</time>
   <time name="total">    6.38    6.41</time>
   <energy>
    <i name="e_fr_energy">   -719.97405658 </i>
    <i name="e_wo_entrp">   -719.97405658 </i>
    <i name="e_0_energy">   -719.97405658 </i>
   </energy>
  </scstep>
  <scstep>
   <time name="dav">    5.45    5.45</time>
   <time name="total">    5.77    5.77</time>
   <energy>
    <i name="e_fr_energy">   -719.97445572 </i>
    <i name="e_wo_entrp">   -719.97445572 </i>
    <i name="e_0_energy">   -719.97445572 </i>
   </energy>
  </scstep>
  <scstep>
   <time name="dav">    5.71    5.71</time>
   <time name="total">    6.03    6.03</time>
   <energy>
    <i name="e_fr_energy">   -719.97446448 </i>
    <i name="e_wo_entrp">   -719.97446448 </i>
    <i name="e_0_energy">   -719.97446448 </i>
   </energy>
  </scstep>
  <scstep>
   <time name="dav">    4.79    4.81</time>
   <time name="total">    5.11    5.13</time>
   <energy>
    <i name="e_fr_energy">   -719.97445234 </i>
    <i name="e_wo_entrp">   -719.97445234 </i>
    <i name="e_0_energy">   -719.97445234 </i>
   </energy>
  </scstep>
  <scstep>
   <time name="dav">    8.10    8.47</time>
   <time name="total">    8.42    8.80</time>
   <energy>
    <i name="e_fr_energy">   -719.97445497 </i>
    <i name="e_wo_entrp">   -719.97445497 </i>
    <i name="e_0_energy">   -719.97445497 </i>
   </energy>
  </scstep>
  <scstep>
   <time name="dav">    3.42    3.45</time>
   <time name="total">    3.63    3.66</time>
   <energy>
    <i name="alphaZ">   2707.09264184 </i>
    <i name="ewald"> -37617.39363153 </i>
    <i name="hartreedc"> -11149.79804057 </i>
    <i name="XCdc">   2210.83741429 </i>
    <i name="pawpsdc">  98635.02146587 </i>
    <i name="pawaedc"> -98246.14556931 </i>
    <i name="eentropy">     -0.00000000 </i>
    <i name="bandstr">  -5187.91155563 </i>
    <i name="atom">  47928.32282246 </i>
    <i name="e_fr_energy">   -719.97445259 </i>
    <i name="e_wo_entrp">   -719.97445259 </i>
    <i name="e_0_energy">   -719.97445259 </i>
   </energy>
  </scstep>
  <structure>
   <crystal>
    <varray name="basis" >
     <v>      10.98011824       0.00000000       0.00000000 </v>
     <v>       0.00000000      10.98011824       0.00000000 </v>
     <v>       0.00000000       0.00000000      10.98011824 </v>
    </varray>
    <i name="volume">   1323.79595765 </i>
    <varray name="rec_basis" >
     <v>       0.09107370       0.00000000       0.00000000 </v>
     <v>       0.00000000       0.09107370       0.00000000 </v>
     <v>       0.00000000       0.00000000       0.09107370 </v>
    </varray>
   </crystal>
   <varray name="positions" >
    <v>       0.57536140       0.11353167       0.98555502 </v>
    <v>       0.76958352       0.39062748       0.64135283 </v>
    <v>       0.89813307       0.01463098       0.44615994 </v>
    <v>       0.36940689       0.61497263       0.90355325 </v>
    <v>       0.26662803       0.46167268       0.63134736 </v>
    <v>       0.20426305       0.40582142       0.32695913 </v>
    <v>       0.57435904       0.94612378       0.52455117 </v>
    <v>       0.32272565       0.97962122       0.55833539 </v>
    <v>       0.14223072       0.87010101       0.35137836 </v>
    <v>       0.58239318       0.69463806       0.29778203 </v>
    <v>       0.37004208       0.91341059       0.16486725 </v>
    <v>       0.76620565       0.73863677       0.52317183 </v>
    <v>       0.42413885       0.47657064       0.17199449 </v>
    <v>       0.65196037       0.27130853       0.20592475 </v>
    <v>       0.84835721       0.78253726       0.17662774 </v>
    <v>       0.04561610       0.86467061       0.66992299 </v>
    <v>       0.11846664       0.12916915       0.30656556 </v>
    <v>       0.65526068       0.60002721       0.77966637 </v>
    <v>       0.53812963       0.39966546       0.43787143 </v>
    <v>       0.97826103       0.52557748       0.13380354 </v>
    <v>       0.73677799       0.93759049       0.98625081 </v>
    <v>       0.74102907       0.48608644       0.38133111 </v>
    <v>       0.74178248       0.18208973       0.48676108 </v>
    <v>       0.37023278       0.23917086       0.09627968 </v>
    <v>       0.35824537       0.11938200       0.87357762 </v>
    <v>       0.09715077       0.54609402       0.88057466 </v>
    <v>       0.16992668       0.04790922       0.79856601 </v>
    <v>       0.87454659       0.19955461       0.27479974 </v>
    <v>       0.00456370       0.50278286       0.70327726 </v>
    <v>       0.35704900       0.24116918       0.53949988 </v>
    <v>       0.86807560       0.43548036       0.86700496 </v>
    <v>       0.43572700       0.39394072       0.80328539 </v>
    <v>       0.22226619       0.37357112       0.03212451 </v>
    <v>       0.14268548       0.74660927       0.87863423 </v>
    <v>       0.50384115       0.61165318       0.53680303 </v>
    <v>       0.70500438       0.52257823       0.09750716 </v>
    <v>       0.03189891       0.29672570       0.14022607 </v>
    <v>       0.85055963       0.25960787       0.95017808 </v>
    <v>       0.94590428       0.98216036       0.88399282 </v>
    <v>       0.28901714       0.88564435       0.89583517 </v>
    <v>       0.67931557       0.99974837       0.25041367 </v>
    <v>       0.24674855       0.26610907       0.76423567 </v>
    <v>       0.29049360       0.67721621       0.41479246 </v>
    <v>       0.89519362       0.05487323       0.09005718 </v>
    <v>       0.32355245       0.71946986       0.64688378 </v>
    <v>       0.55727122       0.79695750       0.03820724 </v>
    <v>       0.60290642       0.36900532       0.94653477 </v>
    <v>       0.53377763       0.20242657       0.69510748 </v>
    <v>       0.82984048       0.09761655       0.71383024 </v>
    <v>       0.41905173       0.14265662       0.32313595 </v>
    <v>       0.21034045       0.68836805       0.14171236 </v>
    <v>       0.18703526       0.10204235       0.04895940 </v>
    <v>       0.90002867       0.67673062       0.89587404 </v>
    <v>       0.98569313       0.61934469       0.42954774 </v>
    <v>       0.07167227       0.18233137       0.59877353 </v>
    <v>       0.94547660       0.33582286       0.43942287 </v>
    <v>       0.49449131       0.90377852       0.78120433 </v>
    <v>       0.03521617       0.26861971       0.85531875 </v>
    <v>       0.74659251       0.86762830       0.78159874 </v>
    <v>       0.09132727       0.86203743       0.02851858 </v>
    <v>       0.52119111       0.02116647       0.26241804 </v>
    <v>       0.21028341       0.77223599       0.53572010 </v>
    <v>       0.48193305       0.29046660       0.02244538 </v>
    <v>       0.79847686       0.94608358       0.60841361 </v>
    <v>       0.41984756       0.28701464       0.28259805 </v>
    <v>       0.68192677       0.14859487       0.65160685 </v>
    <v>       0.99588352       0.08352885       0.74522639 </v>
    <v>       0.35428760       0.08353413       0.03479452 </v>
    <v>       0.00049811       0.32632771       0.28752510 </v>
    <v>       0.61220727       0.48893526       0.25227768 </v>
    <v>       0.74652698       0.08725003       0.11756958 </v>
    <v>       0.17549500       0.17569292       0.89730466 </v>
    <v>       0.74290482       0.12110880       0.33662526 </v>
    <v>       0.62347627       0.33852404       0.78594585 </v>
    <v>       0.85694912       0.27379457       0.78001360 </v>
    <v>       0.43125350       0.61892483       0.68794767 </v>
    <v>       0.01297487       0.41367326       0.96825402 </v>
    <v>       0.72543067       0.33136335       0.02655325 </v>
    <v>       0.17283639       0.97174001       0.12168026 </v>
    <v>       0.17983959       0.63713988       0.71890749 </v>
    <v>       0.76371352       0.34625920       0.39177912 </v>
    <v>       0.34499383       0.84382337       0.73965257 </v>
    <v>       0.53078317       0.51099277       0.97782792 </v>
    <v>       0.71321809       0.87614648       0.35864609 </v>
    <v>       0.48372514       0.92388304       0.93055900 </v>
    <v>       0.10267946       0.02526833       0.51075233 </v>
    <v>       0.64091246       0.55530190       0.53067304 </v>
    <v>       0.08988449       0.31891148       0.71089437 </v>
    <v>       0.93816722       0.03523014       0.25358760 </v>
    <v>       0.86209398       0.58787622       0.34692695 </v>
    <v>       0.76244375       0.02085227       0.84400788 </v>
    <v>       0.12047560       0.95373361       0.90729522 </v>
    <v>       0.15779355       0.26605895       0.49585489 </v>
    <v>       0.59998018       0.83641201       0.68763383 </v>
    <v>       0.46505984       0.06680737       0.75778184 </v>
    <v>       0.20626051       0.53618621       0.09284315 </v>
    <v>       0.25371970       0.76990154       0.00678294 </v>
    <v>       0.82954039       0.61077547       0.00996579 </v>
    <v>       0.48646033       0.18317862       0.49233097 </v>
    <v>       0.18928554       0.23024674       0.13985412 </v>
    <v>       0.31713799       0.04352556       0.36465093 </v>
    <v>       0.97011526       0.17528611       0.02028041 </v>
    <v>       0.13604197       0.62546211       0.36430218 </v>
    <v>       0.05243556       0.67832630       0.97432756 </v>
    <v>       0.97341019       0.77374502       0.47856712 </v>
    <v>       0.87159572       0.56587121       0.76751319 </v>
    <v>       0.91876841       0.22787191       0.54056533 </v>
    <v>       0.05319253       0.75526434       0.18168126 </v>
    <v>       0.92510656       0.90577177       0.03205677 </v>
    <v>       0.28111958       0.39541956       0.86277017 </v>
    <v>       0.29549117       0.74327497       0.25480552 </v>
    <v>       0.63145729       0.88681799       0.13421885 </v>
    <v>       0.36728813       0.51646271       0.42754347 </v>
    <v>       0.98317286       0.48199510       0.52173162 </v>
    <v>       0.88317258       0.78444745       0.77580488 </v>
    <v>       0.25001289       0.12119711       0.66380192 </v>
    <v>       0.67996622       0.77789734       0.91363281 </v>
    <v>       0.40523695       0.29825174       0.67106914 </v>
    <v>       0.43429554       0.76630324       0.45419375 </v>
    <v>       0.45967029       0.70795689       0.09989101 </v>
   </varray>
  </structure>
  <varray name="forces" >
   <v>      -0.01375712      -2.00043746      -0.62573467 </v>
   <v>       0.76873272      -0.17534260      -2.08066474 </v>
   <v>      -0.76201710      -1.72654362       0.57842222 </v>
   <v>      -1.50675889       0.24665528       0.46162772 </v>
   <v>      -1.56526016       1.49812715      -1.43506452 </v>
   <v>      -0.34227173      -0.01466133       0.29211429 </v>
   <v>       1.43650185       2.76749829      -3.25884539 </v>
   <v>      -0.93333681      -0.51660653      -0.68436974 </v>
   <v>      -1.85373259      -0.52546911      -0.34140709 </v>
   <v>      -0.80885794       1.10923681       0.17940679 </v>
   <v>       1.01535334       0.69746635      -0.45946163 </v>
   <v>       1.19963386      -0.13931914       0.03630227 </v>
   <v>       0.00522114       0.84104805      -1.57422233 </v>
   <v>      -0.27262208       0.24858307       2.09341117 </v>
   <v>      -0.39648705      -0.87859278       1.74633285 </v>
   <v>       0.66838511      -0.37895799      -1.56254366 </v>
   <v>       1.25795894       0.22120256       1.38316708 </v>
   <v>      -1.34863312       0.47135266       0.30725529 </v>
   <v>       0.31833056      -2.36252245       0.48185385 </v>
   <v>       0.33706174       0.99533485       1.34049178 </v>
   <v>       0.05023808      -0.56435318       0.78392280 </v>
   <v>       0.04558141       3.15521946      -0.74441058 </v>
   <v>      -0.86327407       1.04356958      -0.24400659 </v>
   <v>      -1.99372110      -1.71759908       1.45753524 </v>
   <v>      -0.23447793      -0.51838812       0.70786127 </v>
   <v>       0.81142947      -0.77972909       0.65877975 </v>
   <v>      -0.75278518       0.64320085      -1.17300216 </v>
   <v>      -0.63905988      -0.03573952      -0.10978917 </v>
   <v>       0.65285097       0.00879432      -1.70031825 </v>
   <v>      -2.75681386      -0.94446464      -0.60188849 </v>
   <v>       0.08956888      -0.15171297       1.15704840 </v>
   <v>       0.61695523       0.03022061       0.35103818 </v>
   <v>      -0.95165756       0.28114557      -1.16780090 </v>
   <v>       1.66566201      -0.27098275      -2.33423207 </v>
   <v>      -1.95969305       1.36980977       0.31978336 </v>
   <v>      -0.38378623      -0.20968536      -0.38595056 </v>
   <v>       0.24852765      -0.89379403      -2.33787826 </v>
   <v>      -1.20776991      -0.20859084       0.45061835 </v>
   <v>       0.63888206       0.42106741      -0.64231049 </v>
   <v>       0.52957924       0.67440487       0.58909373 </v>
   <v>      -0.16019666      -0.13913002       0.76293882 </v>
   <v>       0.01496245      -1.73453807       0.37781985 </v>
   <v>       0.22275999      -0.18593154      -1.59539342 </v>
   <v>       2.16704083      -0.10464562       2.34441296 </v>
   <v>      -3.31870307       0.89804454       0.08921253 </v>
   <v>       2.57508237       2.19620524      -5.64647629 </v>
   <v>      -2.17406191       1.09496920      -0.40661213 </v>
   <v>       1.52827109      -0.72332859      -1.80671756 </v>
   <v>      -0.95777115       1.54628603       0.26043662 </v>
   <v>       4.06920430      -1.87986213       2.31970531 </v>
   <v>      -2.64550990      -0.92010268      -1.31545316 </v>
   <v>       1.76772242       1.86550643      -3.61402584 </v>
   <v>       1.74366012       0.15700686      -1.88422377 </v>
   <v>       2.79390490       0.34765860       0.82428547 </v>
   <v>       1.18822409      -2.24305734       0.99616882 </v>
   <v>      -0.82543412       4.74138073      -1.65876422 </v>
   <v>      -1.89491406       0.95228590      -0.20992440 </v>
   <v>      -2.19919897      -0.86920335       1.72873512 </v>
   <v>      -0.45903115       1.09450100      -1.37469470 </v>
   <v>      -0.86583290      -1.61828198       3.73793215 </v>
   <v>      -0.21561553       3.40575179       0.85322694 </v>
   <v>       2.61080538      -0.51011356      -0.31160368 </v>
   <v>       2.00137579       1.57582655      -1.32278896 </v>
   <v>      -0.11820652      -0.00405107       3.09003015 </v>
   <v>      -0.70957909       1.94241941      -1.80864893 </v>
   <v>      -0.04535835       0.73449042      -0.93732698 </v>
   <v>      -0.55927785       0.53693884      -1.45999368 </v>
   <v>      -0.53160486       0.85395613      -0.44196689 </v>
   <v>      -0.72998345      -0.15545232       0.91018821 </v>
   <v>       0.66504663       0.63856409      -0.45161754 </v>
   <v>      -0.90044906      -0.64622318      -1.18095576 </v>
   <v>       0.43958035       2.24228248      -1.17197289 </v>
   <v>      -1.17020804      -0.50215722       1.09028124 </v>
   <v>      -2.87735334       0.22381965       1.19476724 </v>
   <v>       2.44027083      -0.90177400       2.67673829 </v>
   <v>       1.28517366      -2.10352332       0.53764723 </v>
   <v>       0.39161774      -2.83653312      -2.80974568 </v>
   <v>       2.15893032       0.91503381      -0.16997940 </v>
   <v>      -2.46770841      -1.67076730       3.18749130 </v>
   <v>       0.25661847       0.14548846       1.74752675 </v>
   <v>       2.14742852      -3.03108297       1.88632053 </v>
   <v>       0.74047438       0.98164340       0.88353408 </v>
   <v>       2.24699388      -0.11461291      -1.67475523 </v>
   <v>       0.16516789      -0.85587374      -0.00972230 </v>
   <v>       0.46885084      -2.96175345       3.01621707 </v>
   <v>      -0.89390355       0.34889084       0.45404219 </v>
   <v>       2.23499777       0.18183024       0.66660249 </v>
   <v>       1.69532786       0.03291136       0.81944788 </v>
   <v>       0.95934072      -0.22047651      -3.47803363 </v>
   <v>      -1.79056770       1.15968369      -2.44955720 </v>
   <v>       0.25129579      -1.14680186       0.61523948 </v>
   <v>       0.31064266      -2.06487116      -1.98282463 </v>
   <v>       0.98773627       2.01465542      -2.19105530 </v>
   <v>       1.65039068      -1.53861235       2.11084599 </v>
   <v>       1.47776426       0.30243546      -0.73531280 </v>
   <v>       1.30353081      -1.10477273       1.32191460 </v>
   <v>      -0.92653769       0.96489734       0.02257601 </v>
   <v>      -2.86201407      -1.21783102       2.85322708 </v>
   <v>       1.39234457      -1.80919593      -0.86190194 </v>
   <v>       0.61072904       2.52346598       0.28506915 </v>
   <v>      -3.21805890      -1.55303436      -0.96406921 </v>
   <v>       0.49767859      -0.58689728      -0.39068014 </v>
   <v>       0.36948509      -1.85927646       0.43164653 </v>
   <v>      -3.05979904       0.69784619      -2.21823279 </v>
   <v>      -0.84475737      -0.07166246       0.14819247 </v>
   <v>      -0.47781231      -0.99647161       0.63382088 </v>
   <v>      -0.19332652      -3.12723050       1.50775445 </v>
   <v>       1.95208217       0.34036492      -0.99115221 </v>
   <v>      -0.69027505       1.17566345      -1.01259151 </v>
   <v>       0.09658654       0.07889873      -1.08210728 </v>
   <v>       1.21112445      -0.81963695       3.43638169 </v>
   <v>       2.04196159      -0.53125417       0.25964812 </v>
   <v>      -1.18433971       2.13305630       0.21418291 </v>
   <v>      -0.06087456      -0.90989279       0.12406258 </v>
   <v>      -0.70992974       1.04774329       1.04467763 </v>
   <v>      -2.07105500       3.59753559       3.45226345 </v>
   <v>      -0.38626495       0.62173354      -0.13609765 </v>
   <v>      -0.48880537       1.61602861       2.49206218 </v>
   <v>       0.30436489      -0.76198673       1.15463019 </v>
   <v>      -0.56191201      -2.60624112       1.28091005 </v>
  </varray>
  <varray name="stress" >
   <v>     157.19603951     -14.86672728     -15.68604510 </v>
   <v>     -14.86672383     154.35513430     -22.34418414 </v>
   <v>     -15.68604366     -22.34418200     144.83714915 </v>
  </varray>
  <energy>
   <i name="e_fr_energy">   -719.97445259 </i>
   <i name="e_wo_entrp">   -719.97445259 </i>
   <i name="e_0_energy">   -719.97445259 </i>
  </energy>
  <time name="totalsc">  108.52  109.62</time>
  <eigenvalues>
   <array>
    <dimension dim="1">band</dimension>
    <dimension dim="2">kpoint</dimension>
    <dimension dim="3">spin</dimension>
    <field>eigene</field>
    <field>occ</field>
    <set>
     <set comment="spin 1">
      <set comment="kpoint 1">
       <r>  -40.7570    1.0000 </r>
       <r>  -40.6690    1.0000 </r>
       <r>  -40.5327    1.0000 </r>
       <r>  -40.3408    1.0000 </r>
       <r>  -40.2913    1.0000 </r>
       <r>  -40.2568    1.0000 </r>
       <r>  -40.2335    1.0000 </r>
       <r>  -40.1892    1.0000 </r>
       <r>  -40.0113    1.0000 </r>
       <r>  -39.9881    1.0000 </r>
       <r>  -39.9773    1.0000 </r>
       <r>  -39.9717    1.0000 </r>
       <r>  -39.9580    1.0000 </r>
       <r>  -39.3650    1.0000 </r>
       <r>  -39.3030    1.0000 </r>
       <r>  -39.2536    1.0000 </r>
       <r>  -39.2272    1.0000 </r>
       <r>  -39.1852    1.0000 </r>
       <r>  -39.0616    1.0000 </r>
       <r>  -37.9289    1.0000 </r>
       <r>  -30.2099    1.0000 </r>
       <r>  -29.6817    1.0000 </r>
       <r>  -29.6457    1.0000 </r>
       <r>  -29.6057    1.0000 </r>
       <r>  -29.5674    1.0000 </r>
       <r>  -29.3040    1.0000 </r>
       <r>  -29.2321    1.0000 </r>
       <r>  -29.1986    1.0000 </r>
       <r>  -29.1518    1.0000 </r>
       <r>  -29.1015    1.0000 </r>
       <r>  -28.9908    1.0000 </r>
       <r>  -28.8562    1.0000 </r>
       <r>  -28.7831    1.0000 </r>
       <r>  -28.7323    1.0000 </r>
       <r>  -28.6895    1.0000 </r>
       <r>  -28.6005    1.0000 </r>
       <r>  -28.5946    1.0000 </r>
       <r>  -28.5469    1.0000 </r>
       <r>  -27.9085    1.0000 </r>
       <r>  -27.7641    1.0000 </r>
       <r>  -15.4226    1.0000 </r>
       <r>  -15.0552    1.0000 </r>
       <r>  -14.8442    1.0000 </r>
       <r>  -14.7549    1.0000 </r>
       <r>  -14.7009    1.0000 </r>
       <r>  -14.6341    1.0000 </r>
       <r>  -14.5945    1.0000 </r>
       <r>  -14.5502    1.0000 </r>
       <r>  -14.4389    1.0000 </r>
       <r>  -14.3584    1.0000 </r>
       <r>  -14.3100    1.0000 </r>
       <r>  -14.2509    1.0000 </r>
       <r>  -14.2265    1.0000 </r>
       <r>  -14.1766    1.0000 </r>
       <r>  -14.1018    1.0000 </r>
       <r>  -14.0271    1.0000 </r>
       <r>  -14.0142    1.0000 </r>
       <r>  -13.9077    1.0000 </r>
       <r>  -13.8669    1.0000 </r>
       <r>  -13.8352    1.0000 </r>
       <r>  -13.8004    1.0000 </r>
       <r>  -13.7409    1.0000 </r>
       <r>  -13.6811    1.0000 </r>
       <r>  -13.6743    1.0000 </r>
       <r>  -13.6282    1.0000 </r>
       <r>  -13.6053    1.0000 </r>
       <r>  -13.5799    1.0000 </r>
       <r>  -13.5385    1.0000 </r>
       <r>  -13.5055    1.0000 </r>
       <r>  -13.4659    1.0000 </r>
       <r>  -13.3884    1.0000 </r>
       <r>  -13.3807    1.0000 </r>
       <r>  -13.3273    1.0000 </r>
       <r>  -13.2539    1.0000 </r>
       <r>  -13.2323    1.0000 </r>
       <r>  -13.2072    1.0000 </r>
       <r>  -13.1575    1.0000 </r>
       <r>  -13.1309    1.0000 </r>
       <r>  -13.0692    1.0000 </r>
       <r>  -13.0010    1.0000 </r>
       <r>  -12.9532    1.0000 </r>
       <r>  -12.9188    1.0000 </r>
       <r>  -12.8871    1.0000 </r>
       <r>  -12.8649    1.0000 </r>
       <r>  -12.8033    1.0000 </r>
       <r>  -12.7727    1.0000 </r>
       <r>  -12.7297    1.0000 </r>
       <r>  -12.6904    1.0000 </r>
       <r>  -12.6461    1.0000 </r>
       <r>  -12.6138    1.0000 </r>
       <r>  -12.5748    1.0000 </r>
       <r>  -12.5443    1.0000 </r>
       <r>  -12.5022    1.0000 </r>
       <r>  -12.4564    1.0000 </r>
       <r>  -12.4125    1.0000 </r>
       <r>  -12.2952    1.0000 </r>
       <r>  -12.2318    1.0000 </r>
       <r>  -12.1691    1.0000 </r>
       <r>  -12.0930    1.0000 </r>
       <r>  -12.0541    1.0000 </r>
       <r>  -11.9956    1.0000 </r>
       <r>  -11.9040    1.0000 </r>
       <r>  -11.8585    1.0000 </r>
       <r>  -11.7635    1.0000 </r>
       <r>  -11.6859    1.0000 </r>
       <r>  -11.6383    1.0000 </r>
       <r>  -11.6016    1.0000 </r>
       <r>  -11.5539    1.0000 </r>
       <r>  -11.4717    1.0000 </r>
       <r>  -11.4316    1.0000 </r>
       <r>  -11.4019    1.0000 </r>
       <r>  -11.3643    1.0000 </r>
       <r>  -11.3299    1.0000 </r>
       <r>  -11.3109    1.0000 </r>
       <r>  -11.2663    1.0000 </r>
       <r>  -11.2494    1.0000 </r>
       <r>  -11.1937    1.0000 </r>
       <r>  -11.1726    1.0000 </r>
       <r>  -11.1496    1.0000 </r>
       <r>  -11.1039    1.0000 </r>
       <r>  -11.0496    1.0000 </r>
       <r>  -11.0381    1.0000 </r>
       <r>  -10.9923    1.0000 </r>
       <r>  -10.9641    1.0000 </r>
       <r>  -10.9309    1.0000 </r>
       <r>  -10.9071    1.0000 </r>
       <r>  -10.8941    1.0000 </r>
       <r>  -10.8814    1.0000 </r>
       <r>  -10.8468    1.0000 </r>
       <r>  -10.8150    1.0000 </r>
       <r>  -10.7763    1.0000 </r>
       <r>  -10.7244    1.0000 </r>
       <r>  -10.6939    1.0000 </r>
       <r>  -10.6762    1.0000 </r>
       <r>  -10.6579    1.0000 </r>
       <r>  -10.6341    1.0000 </r>
       <r>  -10.5944    1.0000 </r>
       <r>  -10.5475    1.0000 </r>
       <r>  -10.5178    1.0000 </r>
       <r>  -10.4820    1.0000 </r>
       <r>  -10.4260    1.0000 </r>
       <r>  -10.3972    1.0000 </r>
       <r>  -10.3257    1.0000 </r>
       <r>  -10.2776    1.0000 </r>
       <r>  -10.2273    1.0000 </r>
       <r>  -10.2045    1.0000 </r>
       <r>  -10.1599    1.0000 </r>
       <r>  -10.1485    1.0000 </r>
       <r>  -10.1047    1.0000 </r>
       <r>  -10.0095    1.0000 </r>
       <r>   -9.9935    1.0000 </r>
       <r>   -9.9001    1.0000 </r>
       <r>   -9.8800    1.0000 </r>
       <r>   -9.7956    1.0000 </r>
       <r>   -9.7274    1.0000 </r>
       <r>   -9.6039    1.0000 </r>
       <r>   -9.5346    1.0000 </r>
       <r>   -9.3509    1.0000 </r>
       <r>   -9.3322    1.0000 </r>
       <r>   -9.1052    1.0000 </r>
       <r>   -2.6571    1.0000 </r>
       <r>   -2.5016    1.0000 </r>
       <r>   -2.4058    1.0000 </r>
       <r>   -2.1251    1.0000 </r>
       <r>   -2.0254    1.0000 </r>
       <r>   -1.9257    1.0000 </r>
       <r>   -1.8621    1.0000 </r>
       <r>   -1.7435    1.0000 </r>
       <r>   -1.6530    1.0000 </r>
       <r>   -1.5963    1.0000 </r>
       <r>   -1.5421    1.0000 </r>
       <r>   -1.4867    1.0000 </r>
       <r>   -1.3621    1.0000 </r>
       <r>   -1.2164    1.0000 </r>
       <r>   -1.1474    1.0000 </r>
       <r>   -1.1142    1.0000 </r>
       <r>   -1.0534    1.0000 </r>
       <r>   -1.0077    1.0000 </r>
       <r>   -0.9597    1.0000 </r>
       <r>   -0.8662    1.0000 </r>
       <r>   -0.8277    1.0000 </r>
       <r>   -0.7251    1.0000 </r>
       <r>   -0.6795    1.0000 </r>
       <r>   -0.6692    1.0000 </r>
       <r>   -0.6220    1.0000 </r>
       <r>   -0.5862    1.0000 </r>
       <r>   -0.5055    1.0000 </r>
       <r>   -0.4709    1.0000 </r>
       <r>   -0.4313    1.0000 </r>
       <r>   -0.3869    1.0000 </r>
       <r>   -0.3527    1.0000 </r>
       <r>   -0.2944    1.0000 </r>
       <r>   -0.2273    1.0000 </r>
       <r>   -0.1760    1.0000 </r>
       <r>   -0.1506    1.0000 </r>
       <r>   -0.1257    1.0000 </r>
       <r>   -0.0876    1.0000 </r>
       <r>   -0.0217    1.0000 </r>
       <r>    0.0097    1.0000 </r>
       <r>    0.0541    1.0000 </r>
       <r>    0.0799    1.0000 </r>
       <r>    0.1092    1.0000 </r>
       <r>    0.1658    1.0000 </r>
       <r>    0.1961    1.0000 </r>
       <r>    0.2312    1.0000 </r>
       <r>    0.2575    1.0000 </r>
       <r>    0.2710    1.0000 </r>
       <r>    0.3152    1.0000 </r>
       <r>    0.3440    1.0000 </r>
       <r>    0.3899    1.0000 </r>
       <r>    0.4037    1.0000 </r>
       <r>    0.4600    1.0000 </r>
       <r>    0.4725    1.0000 </r>
       <r>    0.4847    1.0000 </r>
       <r>    0.5429    1.0000 </r>
       <r>    0.5697    1.0000 </r>
       <r>    0.6065    1.0000 </r>
       <r>    0.6212    1.0000 </r>
       <r>    0.6486    1.0000 </r>
       <r>    0.6652    1.0000 </r>
       <r>    0.6846    1.0000 </r>
       <r>    0.7113    1.0000 </r>
       <r>    0.7483    1.0000 </r>
       <r>    0.7948    1.0000 </r>
       <r>    0.8153    1.0000 </r>
       <r>    0.8656    1.0000 </r>
       <r>    0.8786    1.0000 </r>
       <r>    0.9051    1.0000 </r>
       <r>    0.9368    1.0000 </r>
       <r>    0.9691    1.0000 </r>
       <r>    0.9901    1.0000 </r>
       <r>    1.0098    1.0000 </r>
       <r>    1.0278    1.0000 </r>
       <r>    1.0612    1.0000 </r>
       <r>    1.0725    1.0000 </r>
       <r>    1.1019    1.0000 </r>
       <r>    1.1462    1.0000 </r>
       <r>    1.1645    1.0000 </r>
       <r>    1.1943    1.0000 </r>
       <r>    1.2092    1.0000 </r>
       <r>    1.2143    1.0000 </r>
       <r>    1.2744    1.0000 </r>
       <r>    1.2932    1.0000 </r>
       <r>    1.3079    1.0000 </r>
       <r>    1.3395    1.0000 </r>
       <r>    1.3606    1.0000 </r>
       <r>    1.4057    1.0000 </r>
       <r>    1.4162    1.0000 </r>
       <r>    1.4581    1.0000 </r>
       <r>    1.4703    1.0000 </r>
       <r>    1.4869    1.0000 </r>
       <r>    1.5400    1.0000 </r>
       <r>    1.5703    1.0000 </r>
       <r>    1.5783    1.0000 </r>
       <r>    1.6165    1.0000 </r>
       <r>    1.6227    1.0000 </r>
       <r>    1.6650    1.0000 </r>
       <r>    1.6828    1.0000 </r>
       <r>    1.7134    1.0000 </r>
       <r>    1.7308    1.0000 </r>
       <r>    1.7620    1.0000 </r>
       <r>    1.7831    1.0000 </r>
       <r>    1.8117    1.0000 </r>
       <r>    1.8516    1.0000 </r>
       <r>    1.8600    1.0000 </r>
       <r>    1.8824    1.0000 </r>
       <r>    1.9109    1.0000 </r>
       <r>    1.9303    1.0000 </r>
       <r>    1.9468    1.0000 </r>
       <r>    1.9586    1.0000 </r>
       <r>    1.9997    1.0000 </r>
       <r>    2.0158    1.0000 </r>
       <r>    2.0345    1.0000 </r>
       <r>    2.0683    1.0000 </r>
       <r>    2.0766    1.0000 </r>
       <r>    2.1067    1.0000 </r>
       <r>    2.1334    1.0000 </r>
       <r>    2.1650    1.0000 </r>
       <r>    2.1793    1.0000 </r>
       <r>    2.2094    1.0000 </r>
       <r>    2.2114    1.0000 </r>
       <r>    2.2541    1.0000 </r>
       <r>    2.2754    1.0000 </r>
       <r>    2.3075    1.0000 </r>
       <r>    2.3229    1.0000 </r>
       <r>    2.3412    1.0000 </r>
       <r>    2.3727    1.0000 </r>
       <r>    2.3910    1.0000 </r>
       <r>    2.4004    1.0000 </r>
       <r>    2.4213    1.0000 </r>
       <r>    2.4408    1.0000 </r>
       <r>    2.4561    1.0000 </r>
       <r>    2.4853    1.0000 </r>
       <r>    2.5035    1.0000 </r>
       <r>    2.5292    1.0000 </r>
       <r>    2.5398    1.0000 </r>
       <r>    2.5750    1.0000 </r>
       <r>    2.5819    1.0000 </r>
       <r>    2.6071    1.0000 </r>
       <r>    2.6247    1.0000 </r>
       <r>    2.6594    1.0000 </r>
       <r>    2.6849    1.0000 </r>
       <r>    2.7252    1.0000 </r>
       <r>    2.7288    1.0000 </r>
       <r>    2.7367    1.0000 </r>
       <r>    2.7723    1.0000 </r>
       <r>    2.7837    1.0000 </r>
       <r>    2.8110    1.0000 </r>
       <r>    2.8386    1.0000 </r>
       <r>    2.8682    1.0000 </r>
       <r>    2.8808    1.0000 </r>
       <r>    2.9146    1.0000 </r>
       <r>    2.9563    1.0000 </r>
       <r>    2.9712    1.0000 </r>
       <r>    2.9969    1.0000 </r>
       <r>    3.0231    1.0000 </r>
       <r>    3.0392    1.0000 </r>
       <r>    3.0743    1.0000 </r>
       <r>    3.1023    1.0000 </r>
       <r>    3.1296    1.0000 </r>
       <r>    3.1610    1.0000 </r>
       <r>    3.1808    1.0000 </r>
       <r>    3.2522    1.0000 </r>
       <r>    3.2624    1.0000 </r>
       <r>    3.2709    1.0000 </r>
       <r>    3.3216    1.0000 </r>
       <r>    3.3598    1.0000 </r>
       <r>    3.4020    1.0000 </r>
       <r>    3.4219    1.0000 </r>
       <r>    3.4779    1.0000 </r>
       <r>    3.4981    1.0000 </r>
       <r>    3.5378    1.0000 </r>
       <r>    3.5853    1.0000 </r>
       <r>    3.6179    1.0000 </r>
       <r>    3.6981    1.0000 </r>
       <r>    3.7585    1.0000 </r>
       <r>    3.8074    1.0000 </r>
       <r>    3.8469    1.0000 </r>
       <r>    3.8972    1.0000 </r>
       <r>    4.2159    1.0000 </r>
       <r>    7.3514    0.0000 </r>
       <r>    7.6420    0.0000 </r>
       <r>    7.8103    0.0000 </r>
       <r>    7.8953    0.0000 </r>
       <r>    8.0760    0.0000 </r>
       <r>    8.2456    0.0000 </r>
       <r>    8.3277    0.0000 </r>
       <r>    8.3687    0.0000 </r>
       <r>    8.4265    0.0000 </r>
       <r>    8.5221    0.0000 </r>
       <r>    8.5518    0.0000 </r>
       <r>    8.7136    0.0000 </r>
       <r>    8.7611    0.0000 </r>
       <r>    8.8309    0.0000 </r>
       <r>    8.8953    0.0000 </r>
       <r>    8.9394    0.0000 </r>
       <r>    8.9835    0.0000 </r>
       <r>    9.0758    0.0000 </r>
       <r>    9.1339    0.0000 </r>
       <r>    9.1460    0.0000 </r>
       <r>    9.2099    0.0000 </r>
       <r>    9.2550    0.0000 </r>
       <r>    9.2993    0.0000 </r>
       <r>    9.3971    0.0000 </r>
       <r>    9.4019    0.0000 </r>
       <r>    9.4185    0.0000 </r>
       <r>    9.4941    0.0000 </r>
       <r>    9.5376    0.0000 </r>
       <r>    9.6155    0.0000 </r>
       <r>    9.6926    0.0000 </r>
       <r>    9.7239    0.0000 </r>
       <r>    9.7619    0.0000 </r>
       <r>    9.7874    0.0000 </r>
       <r>    9.8211    0.0000 </r>
       <r>    9.9021    0.0000 </r>
       <r>    9.9347    0.0000 </r>
       <r>    9.9736    0.0000 </r>
       <r>   10.0258    0.0000 </r>
       <r>   10.0921    0.0000 </r>
       <r>   10.1309    0.0000 </r>
       <r>   10.2051    0.0000 </r>
       <r>   10.2175    0.0000 </r>
       <r>   10.2441    0.0000 </r>
       <r>   10.3044    0.0000 </r>
       <r>   10.3648    0.0000 </r>
       <r>   10.3708    0.0000 </r>
       <r>   10.4162    0.0000 </r>
       <r>   10.4838    0.0000 </r>
       <r>   10.5061    0.0000 </r>
       <r>   10.5612    0.0000 </r>
       <r>   10.5884    0.0000 </r>
       <r>   10.6037    0.0000 </r>
       <r>   10.6885    0.0000 </r>
       <r>   10.7496    0.0000 </r>
[...]
       <r>   -31.5166     0.0000    40.0000 </r>
       <r>   -31.3255     0.0000    40.0000 </r>
       <r>   -31.1345     0.0000    40.0000 </r>
       <r>   -30.9434     0.0000    40.0000 </r>
       <r>   -30.7524     0.0000    40.0000 </r>
       <r>   -30.5613     0.0000    40.0000 </r>
       <r>   -30.3702     0.0000    40.0000 </r>
       <r>   -30.1792     8.4501    41.6145 </r>
       <r>   -29.9881     2.0177    42.0000 </r>
       <r>   -29.7970     0.0059    42.0011 </r>
       <r>   -29.6060    26.0341    46.9752 </r>
       <r>   -29.4149    15.8404    50.0017 </r>
       <r>   -29.2239    19.2412    53.6779 </r>
       <r>   -29.0328    34.0442    60.1824 </r>
       <r>   -28.8417    16.9282    63.4167 </r>
       <r>   -28.6507    34.3417    69.9781 </r>
       <r>   -28.4596    31.4464    75.9863 </r>
       <r>   -28.2686     0.0719    76.0000 </r>
       <r>   -28.0775     0.0000    76.0000 </r>
       <r>   -27.8864     7.6855    77.4684 </r>
       <r>   -27.6954    12.9776    79.9479 </r>
       <r>   -27.5043     0.2727    80.0000 </r>
       <r>   -27.3133     0.0000    80.0000 </r>
       <r>   -27.1222     0.0000    80.0000 </r>
       <r>   -26.9311     0.0000    80.0000 </r>
       <r>   -26.7401     0.0000    80.0000 </r>
       <r>   -26.5490     0.0000    80.0000 </r>
       <r>   -26.3580     0.0000    80.0000 </r>
       <r>   -26.1669     0.0000    80.0000 </r>
       <r>   -25.9758     0.0000    80.0000 </r>
       <r>   -25.7848     0.0000    80.0000 </r>
       <r>   -25.5937     0.0000    80.0000 </r>
       <r>   -25.4027     0.0000    80.0000 </r>
       <r>   -25.2116     0.0000    80.0000 </r>
       <r>   -25.0205     0.0000    80.0000 </r>
       <r>   -24.8295     0.0000    80.0000 </r>
       <r>   -24.6384     0.0000    80.0000 </r>
       <r>   -24.4473     0.0000    80.0000 </r>
       <r>   -24.2563     0.0000    80.0000 </r>
       <r>   -24.0652     0.0000    80.0000 </r>
       <r>   -23.8742     0.0000    80.0000 </r>
       <r>   -23.6831     0.0000    80.0000 </r>
       <r>   -23.4920     0.0000    80.0000 </r>
       <r>   -23.3010     0.0000    80.0000 </r>
       <r>   -23.1099     0.0000    80.0000 </r>
       <r>   -22.9189     0.0000    80.0000 </r>
       <r>   -22.7278     0.0000    80.0000 </r>
       <r>   -22.5367     0.0000    80.0000 </r>
       <r>   -22.3457     0.0000    80.0000 </r>
       <r>   -22.1546     0.0000    80.0000 </r>
       <r>   -21.9636     0.0000    80.0000 </r>
       <r>   -21.7725     0.0000    80.0000 </r>
       <r>   -21.5814     0.0000    80.0000 </r>
       <r>   -21.3904     0.0000    80.0000 </r>
       <r>   -21.1993     0.0000    80.0000 </r>
       <r>   -21.0083     0.0000    80.0000 </r>
       <r>   -20.8172     0.0000    80.0000 </r>
       <r>   -20.6261     0.0000    80.0000 </r>
       <r>   -20.4351     0.0000    80.0000 </r>
       <r>   -20.2440     0.0000    80.0000 </r>
       <r>   -20.0530     0.0000    80.0000 </r>
       <r>   -19.8619     0.0000    80.0000 </r>
       <r>   -19.6708     0.0000    80.0000 </r>
       <r>   -19.4798     0.0000    80.0000 </r>
       <r>   -19.2887     0.0000    80.0000 </r>
       <r>   -19.0977     0.0000    80.0000 </r>
       <r>   -18.9066     0.0000    80.0000 </r>
       <r>   -18.7155     0.0000    80.0000 </r>
       <r>   -18.5245     0.0000    80.0000 </r>
       <r>   -18.3334     0.0000    80.0000 </r>
       <r>   -18.1423     0.0000    80.0000 </r>
       <r>   -17.9513     0.0000    80.0000 </r>
       <r>   -17.7602     0.0000    80.0000 </r>
       <r>   -17.5692     0.0000    80.0000 </r>
       <r>   -17.3781     0.0000    80.0000 </r>
       <r>   -17.1870     0.0000    80.0000 </r>
       <r>   -16.9960     0.0000    80.0000 </r>
       <r>   -16.8049     0.0000    80.0000 </r>
       <r>   -16.6139     0.0000    80.0000 </r>
       <r>   -16.4228     0.0000    80.0000 </r>
       <r>   -16.2317     0.0000    80.0000 </r>
       <r>   -16.0407     0.0000    80.0000 </r>
       <r>   -15.8496     0.0000    80.0000 </r>
       <r>   -15.6586     0.0000    80.0000 </r>
       <r>   -15.4675     1.0680    80.2041 </r>
       <r>   -15.2764     9.3996    82.0000 </r>
       <r>   -15.0854     2.1398    82.4088 </r>
       <r>   -14.8943     8.9936    84.1271 </r>
       <r>   -14.7033    24.7790    88.8614 </r>
       <r>   -14.5122    35.9027    95.7210 </r>
       <r>   -14.3211    25.9893   100.6865 </r>
       <r>   -14.1301    38.5077   108.0438 </r>
       <r>   -13.9390    33.7524   114.4926 </r>
       <r>   -13.7480    43.7261   122.8469 </r>
       <r>   -13.5569    57.8097   133.8921 </r>
       <r>   -13.3658    46.3653   142.7507 </r>
       <r>   -13.1748    49.9063   152.2858 </r>
       <r>   -12.9837    40.3226   159.9899 </r>
       <r>   -12.7926    50.9017   169.7152 </r>
       <r>   -12.6016    52.7507   179.7938 </r>
       <r>   -12.4105    45.8187   188.5479 </r>
       <r>   -12.2195    25.6328   193.4454 </r>
       <r>   -12.0284    34.9881   200.1302 </r>
       <r>   -11.8373    27.4308   205.3712 </r>
       <r>   -11.6463    28.4997   210.8163 </r>
       <r>   -11.4552    36.8116   217.8496 </r>
       <r>   -11.2642    61.8899   229.6743 </r>
       <r>   -11.0731    55.6483   240.3065 </r>
       <r>   -10.8820    71.1218   253.8951 </r>
       <r>   -10.6910    62.0136   265.7434 </r>
       <r>   -10.4999    63.3614   277.8493 </r>
       <r>   -10.3089    41.7381   285.8238 </r>
       <r>   -10.1178    53.4139   296.0291 </r>
       <r>    -9.9267    34.6678   302.6528 </r>
       <r>    -9.7357    31.7030   308.7100 </r>
       <r>    -9.5446    20.6600   312.6573 </r>
       <r>    -9.3536    14.8828   315.5008 </r>
       <r>    -9.1625    13.6330   318.1055 </r>
       <r>    -8.9714     9.9147   319.9998 </r>
       <r>    -8.7804     0.0008   320.0000 </r>
       <r>    -8.5893     0.0000   320.0000 </r>
       <r>    -8.3983     0.0000   320.0000 </r>
       <r>    -8.2072     0.0000   320.0000 </r>
       <r>    -8.0161     0.0000   320.0000 </r>
       <r>    -7.8251     0.0000   320.0000 </r>
       <r>    -7.6340     0.0000   320.0000 </r>
       <r>    -7.4430     0.0000   320.0000 </r>
       <r>    -7.2519     0.0000   320.0000 </r>
       <r>    -7.0608     0.0000   320.0000 </r>
       <r>    -6.8698     0.0000   320.0000 </r>
       <r>    -6.6787     0.0000   320.0000 </r>
       <r>    -6.4876     0.0000   320.0000 </r>
       <r>    -6.2966     0.0000   320.0000 </r>
       <r>    -6.1055     0.0000   320.0000 </r>
       <r>    -5.9145     0.0000   320.0000 </r>
       <r>    -5.7234     0.0000   320.0000 </r>
       <r>    -5.5323     0.0000   320.0000 </r>
       <r>    -5.3413     0.0000   320.0000 </r>
       <r>    -5.1502     0.0000   320.0000 </r>
       <r>    -4.9592     0.0000   320.0000 </r>
       <r>    -4.7681     0.0000   320.0000 </r>
       <r>    -4.5770     0.0000   320.0000 </r>
       <r>    -4.3860     0.0000   320.0000 </r>
       <r>    -4.1949     0.0000   320.0000 </r>
       <r>    -4.0039     0.0000   320.0000 </r>
       <r>    -3.8128     0.0000   320.0000 </r>
       <r>    -3.6217     0.0000   320.0000 </r>
       <r>    -3.4307     0.0000   320.0000 </r>
       <r>    -3.2396     0.0000   320.0000 </r>
       <r>    -3.0486     0.0000   320.0000 </r>
       <r>    -2.8575     0.0000   320.0000 </r>
       <r>    -2.6664     4.2771   320.8172 </r>
       <r>    -2.4754    14.4221   323.5727 </r>
       <r>    -2.2843    12.7006   325.9992 </r>
       <r>    -2.0933     9.0301   327.7245 </r>
       <r>    -1.9022    21.6164   331.8546 </r>
       <r>    -1.7111    19.3168   335.5453 </r>
       <r>    -1.5201    32.6200   341.7777 </r>
       <r>    -1.3290    19.7263   345.5466 </r>
       <r>    -1.1379    21.3595   349.6276 </r>
       <r>    -0.9469    37.1434   356.7242 </r>
       <r>    -0.7558    30.7942   362.6078 </r>
       <r>    -0.5648    46.5143   371.4949 </r>
       <r>    -0.3737    40.5558   379.2435 </r>
       <r>    -0.1826    44.0715   387.6638 </r>
       <r>     0.0084    47.6416   396.7663 </r>
       <r>     0.1995    57.3953   407.7322 </r>
       <r>     0.3905    62.0733   419.5920 </r>
       <r>     0.5816    68.0769   432.5988 </r>
       <r>     0.7727    68.8148   445.7466 </r>
       <r>     0.9637    71.3943   459.3873 </r>
       <r>     1.1548    76.4557   473.9949 </r>
       <r>     1.3458    80.3747   489.3514 </r>
       <r>     1.5369    74.8546   503.6532 </r>
       <r>     1.7280    78.4951   518.6505 </r>
       <r>     1.9190    80.7260   534.0740 </r>
       <r>     2.1101    89.8556   551.2419 </r>
       <r>     2.3011    85.8677   567.6479 </r>
       <r>     2.4922    92.7636   585.3713 </r>
       <r>     2.6833    94.6836   603.4616 </r>
       <r>     2.8743    81.3470   619.0039 </r>
       <r>     3.0654    81.7952   634.6317 </r>
       <r>     3.2564    61.3816   646.3593 </r>
       <r>     3.4475    61.8810   658.1824 </r>
       <r>     3.6386    48.1259   667.3773 </r>
       <r>     3.8296    34.9592   674.0566 </r>
       <r>     4.0207    20.6357   677.9993 </r>
       <r>     4.2118     4.8160   678.9195 </r>
       <r>     4.4028     5.6554   680.0000 </r>
       <r>     4.5939     0.0000   680.0000 </r>
       <r>     4.7849     0.0000   680.0000 </r>
       <r>     4.9760     0.0000   680.0000 </r>
       <r>     5.1671     0.0000   680.0000 </r>
       <r>     5.3581     0.0000   680.0000 </r>
       <r>     5.5492     0.0000   680.0000 </r>
       <r>     5.7402     0.0000   680.0000 </r>
       <r>     5.9313     0.0000   680.0000 </r>
       <r>     6.1224     0.0000   680.0000 </r>
       <r>     6.3134     0.0000   680.0000 </r>
       <r>     6.5045     0.0000   680.0000 </r>
       <r>     6.6955     0.0000   680.0000 </r>
       <r>     6.8866     0.0000   680.0000 </r>
       <r>     7.0777     0.0000   680.0000 </r>
       <r>     7.2687     0.0487   680.0093 </r>
       <r>     7.4598    10.3771   681.9920 </r>
       <r>     7.6508     8.2645   683.5710 </r>
       <r>     7.8419    11.3872   685.7466 </r>
       <r>     8.0330    12.5817   688.1505 </r>
       <r>     8.2240    12.9078   690.6167 </r>
       <r>     8.4151    32.4186   696.8106 </r>
       <r>     8.6061    23.2597   701.2546 </r>
       <r>     8.7972    23.7315   705.7887 </r>
       <r>     8.9883    37.0634   712.8701 </r>
       <r>     9.1793    36.4542   719.8350 </r>
       <r>     9.3704    38.9829   727.2831 </r>
       <r>     9.5614    38.9277   734.7207 </r>
       <r>     9.7525    44.9527   743.3094 </r>
       <r>     9.9436    43.5017   751.6208 </r>
       <r>    10.1346    40.2498   759.3110 </r>
       <r>    10.3257    47.6419   768.4135 </r>
       <r>    10.5168    44.4072   776.8980 </r>
       <r>    10.7078    49.8897   786.4299 </r>
       <r>    10.8989    46.9685   795.4038 </r>
       <r>    11.0899    52.8415   805.4997 </r>
       <r>    11.2810    39.3681   813.0214 </r>
       <r>    11.4721    15.5884   815.9997 </r>
       <r>    11.6631     0.0013   816.0000 </r>
       <r>    11.8542     0.0000   816.0000 </r>
       <r>    12.0452     0.0000   816.0000 </r>
       <r>    12.2363     0.0000   816.0000 </r>
       <r>    12.4274     0.0000   816.0000 </r>
       <r>    12.6184     0.0000   816.0000 </r>
       <r>    12.8095     0.0000   816.0000 </r>
       <r>    13.0005     0.0000   816.0000 </r>
       <r>    13.1916     0.0000   816.0000 </r>
       <r>    13.3827     0.0000   816.0000 </r>
       <r>    13.5737     0.0000   816.0000 </r>
       <r>    13.7648     0.0000   816.0000 </r>
       <r>    13.9558     0.0000   816.0000 </r>
      </set>
     </set>
    </array>
   </total>
  </dos>
 </calculation>
 <structure name="finalpos" >
  <crystal>
   <varray name="basis" >
    <v>      10.98011824       0.00000000       0.00000000 </v>
    <v>       0.00000000      10.98011824       0.00000000 </v>
    <v>       0.00000000       0.00000000      10.98011824 </v>
   </varray>
   <i name="volume">   1323.79595765 </i>
   <varray name="rec_basis" >
    <v>       0.09107370       0.00000000       0.00000000 </v>
    <v>       0.00000000       0.09107370       0.00000000 </v>
    <v>       0.00000000       0.00000000       0.09107370 </v>
   </varray>
  </crystal>
  <varray name="positions" >
   <v>       0.57536140       0.11353167       0.98555502 </v>
   <v>       0.76958352       0.39062748       0.64135283 </v>
   <v>       0.89813307       0.01463098       0.44615994 </v>
   <v>       0.36940689       0.61497263       0.90355325 </v>
   <v>       0.26662803       0.46167268       0.63134736 </v>
   <v>       0.20426305       0.40582142       0.32695913 </v>
   <v>       0.57435904       0.94612378       0.52455117 </v>
   <v>       0.32272565       0.97962122       0.55833539 </v>
   <v>       0.14223072       0.87010101       0.35137836 </v>
   <v>       0.58239318       0.69463806       0.29778203 </v>
   <v>       0.37004208       0.91341059       0.16486725 </v>
   <v>       0.76620565       0.73863677       0.52317183 </v>
   <v>       0.42413885       0.47657064       0.17199449 </v>
   <v>       0.65196037       0.27130853       0.20592475 </v>
   <v>       0.84835721       0.78253726       0.17662774 </v>
   <v>       0.04561610       0.86467061       0.66992299 </v>
   <v>       0.11846664       0.12916915       0.30656556 </v>
   <v>       0.65526068       0.60002721       0.77966637 </v>
   <v>       0.53812963       0.39966546       0.43787143 </v>
   <v>       0.97826103       0.52557748       0.13380354 </v>
   <v>       0.73677799       0.93759049       0.98625081 </v>
   <v>       0.74102907       0.48608644       0.38133111 </v>
   <v>       0.74178248       0.18208973       0.48676108 </v>
   <v>       0.37023278       0.23917086       0.09627968 </v>
   <v>       0.35824537       0.11938200       0.87357762 </v>
   <v>       0.09715077       0.54609402       0.88057466 </v>
   <v>       0.16992668       0.04790922       0.79856601 </v>
   <v>       0.87454659       0.19955461       0.27479974 </v>
   <v>       0.00456370       0.50278286       0.70327726 </v>
   <v>       0.35704900       0.24116918       0.53949988 </v>
   <v>       0.86807560       0.43548036       0.86700496 </v>
   <v>       0.43572700       0.39394072       0.80328539 </v>
   <v>       0.22226619       0.37357112       0.03212451 </v>
   <v>       0.14268548       0.74660927       0.87863423 </v>
   <v>       0.50384115       0.61165318       0.53680303 </v>
   <v>       0.70500438       0.52257823       0.09750716 </v>
   <v>       0.03189891       0.29672570       0.14022607 </v>
   <v>       0.85055963       0.25960787       0.95017808 </v>
   <v>       0.94590428       0.98216036       0.88399282 </v>
   <v>       0.28901714       0.88564435       0.89583517 </v>
   <v>       0.67931557       0.99974837       0.25041367 </v>
   <v>       0.24674855       0.26610907       0.76423567 </v>
   <v>       0.29049360       0.67721621       0.41479246 </v>
   <v>       0.89519362       0.05487323       0.09005718 </v>
   <v>       0.32355245       0.71946986       0.64688378 </v>
   <v>       0.55727122       0.79695750       0.03820724 </v>
   <v>       0.60290642       0.36900532       0.94653477 </v>
   <v>       0.53377763       0.20242657       0.69510748 </v>
   <v>       0.82984048       0.09761655       0.71383024 </v>
   <v>       0.41905173       0.14265662       0.32313595 </v>
   <v>       0.21034045       0.68836805       0.14171236 </v>
   <v>       0.18703526       0.10204235       0.04895940 </v>
   <v>       0.90002867       0.67673062       0.89587404 </v>
   <v>       0.98569313       0.61934469       0.42954774 </v>
   <v>       0.07167227       0.18233137       0.59877353 </v>
   <v>       0.94547660       0.33582286       0.43942287 </v>
   <v>       0.49449131       0.90377852       0.78120433 </v>
   <v>       0.03521617       0.26861971       0.85531875 </v>
   <v>       0.74659251       0.86762830       0.78159874 </v>
   <v>       0.09132727       0.86203743       0.02851858 </v>
   <v>       0.52119111       0.02116647       0.26241804 </v>
   <v>       0.21028341       0.77223599       0.53572010 </v>
   <v>       0.48193305       0.29046660       0.02244538 </v>
   <v>       0.79847686       0.94608358       0.60841361 </v>
   <v>       0.41984756       0.28701464       0.28259805 </v>
   <v>       0.68192677       0.14859487       0.65160685 </v>
   <v>       0.99588352       0.08352885       0.74522639 </v>
   <v>       0.35428760       0.08353413       0.03479452 </v>
   <v>       0.00049811       0.32632771       0.28752510 </v>
   <v>       0.61220727       0.48893526       0.25227768 </v>
   <v>       0.74652698       0.08725003       0.11756958 </v>
   <v>       0.17549500       0.17569292       0.89730466 </v>
   <v>       0.74290482       0.12110880       0.33662526 </v>
   <v>       0.62347627       0.33852404       0.78594585 </v>
   <v>       0.85694912       0.27379457       0.78001360 </v>
   <v>       0.43125350       0.61892483       0.68794767 </v>
   <v>       0.01297487       0.41367326       0.96825402 </v>
   <v>       0.72543067       0.33136335       0.02655325 </v>
   <v>       0.17283639       0.97174001       0.12168026 </v>
   <v>       0.17983959       0.63713988       0.71890749 </v>
   <v>       0.76371352       0.34625920       0.39177912 </v>
   <v>       0.34499383       0.84382337       0.73965257 </v>
   <v>       0.53078317       0.51099277       0.97782792 </v>
   <v>       0.71321809       0.87614648       0.35864609 </v>
   <v>       0.48372514       0.92388304       0.93055900 </v>
   <v>       0.10267946       0.02526833       0.51075233 </v>
   <v>       0.64091246       0.55530190       0.53067304 </v>
   <v>       0.08988449       0.31891148       0.71089437 </v>
   <v>       0.93816722       0.03523014       0.25358760 </v>
   <v>       0.86209398       0.58787622       0.34692695 </v>
   <v>       0.76244375       0.02085227       0.84400788 </v>
   <v>       0.12047560       0.95373361       0.90729522 </v>
   <v>       0.15779355       0.26605895       0.49585489 </v>
   <v>       0.59998018       0.83641201       0.68763383 </v>
   <v>       0.46505984       0.06680737       0.75778184 </v>
   <v>       0.20626051       0.53618621       0.09284315 </v>
   <v>       0.25371970       0.76990154       0.00678294 </v>
   <v>       0.82954039       0.61077547       0.00996579 </v>
   <v>       0.48646033       0.18317862       0.49233097 </v>
   <v>       0.18928554       0.23024674       0.13985412 </v>
   <v>       0.31713799       0.04352556       0.36465093 </v>
   <v>       0.97011526       0.17528611       0.02028041 </v>
   <v>       0.13604197       0.62546211       0.36430218 </v>
   <v>       0.05243556       0.67832630       0.97432756 </v>
   <v>       0.97341019       0.77374502       0.47856712 </v>
   <v>       0.87159572       0.56587121       0.76751319 </v>
   <v>       0.91876841       0.22787191       0.54056533 </v>
   <v>       0.05319253       0.75526434       0.18168126 </v>
   <v>       0.92510656       0.90577177       0.03205677 </v>
   <v>       0.28111958       0.39541956       0.86277017 </v>
   <v>       0.29549117       0.74327497       0.25480552 </v>
   <v>       0.63145729       0.88681799       0.13421885 </v>
   <v>       0.36728813       0.51646271       0.42754347 </v>
   <v>       0.98317286       0.48199510       0.52173162 </v>
   <v>       0.88317258       0.78444745       0.77580488 </v>
   <v>       0.25001289       0.12119711       0.66380192 </v>
   <v>       0.67996622       0.77789734       0.91363281 </v>
   <v>       0.40523695       0.29825174       0.67106914 </v>
   <v>       0.43429554       0.76630324       0.45419375 </v>
   <v>       0.45967029       0.70795689       0.09989101 </v>
  </varray>
 </structure>
</modeling>
